ITEM: TIMESTEP
0
ITEM: NUMBER OF ATOMS
189
ITEM: BOX BOUNDS pp pp pp
1.3540535327969456e+00 1.4645946467202954e+01
1.3540535327969456e+00 1.4645946467202954e+01
1.3540535327969456e+00 1.4645946467202954e+01
ITEM: ATOMS id type x y z ix iy iz
94 1 4.62168 6.56246 5.84452 0 2 1
21 2 5.92295 2.5891 7.12909 0 -1 2
135 1 7.84852 6.40109 5.15302 2 2 0
62 2 2.72113 7.69456 7.11333 -1 -1 1
31 2 2.50947 5.71423 3.10357 1 0 1
51 2 5.653 4.04293 3.4506 0 -2 1
47 2 6.35815 7.14102 4.77983 1 0 2
151 1 3.59047 1.38129 4.77584 -1 2 1
55 2 3.65963 4.86665 6.14253 0 1 1
177 1 5.81111 6.07812 3.24514 0 0 0
123 1 5.24081 3.66744 5.65782 0 -2 -1
121 1 4.26225 2.99808 2.5953 1 2 1
159 1 6.63707 1.74946 3.72767 0 -1 0
111 1 3.81008 4.83396 4.0611 -2 -1 5
165 1 1.97288 6.17948 5.01455 2 0 2
157 1 7.67624 3.45026 6.78595 0 3 1
189 1 2.52672 7.52348 2.99455 0 1 2
110 1 2.12375 2.44344 2.16731 -3 1 0
167 1 2.6061 3.65634 7.06495 3 1 0
188 1 7.95275 4.01319 3.81327 -1 1 2
124 1 6.92679 3.17409 1.83583 -2 -1 0
18 2 7.91769 4.90623 1.54047 0 0 -1
164 1 6.51977 6.57704 7.85258 1 0 0
130 1 2.74293 6.06104 7.55571 3 0 0
147 1 12.7712 3.14267 2.68575 -2 0 -1
7 2 8.85431 4.49721 5.81363 -1 0 0
170 1 11.7076 5.24689 2.35491 0 2 2
112 1 8.67733 6.48437 2.22452 0 2 1
15 2 13.3745 6.40304 5.26539 0 0 0
54 2 11.274 3.88593 3.69407 1 1 2
156 1 13.1937 5.70279 7.13247 1 1 0
125 1 13.1694 2.82724 7.74574 0 0 -2
9 2 14.5274 4.4093 7.92372 -1 -1 -1
126 1 10.3111 3.21747 5.75874 -2 -1 1
59 2 10.2156 6.9155 3.18936 0 0 2
73 1 10.0265 5.15113 4.25196 -2 0 -1
36 2 11.7448 2.65417 6.7302 0 0 0
179 1 11.6478 7.21726 4.28384 2 1 1
145 1 12.4137 3.95341 5.17415 1 1 -2
14 2 13.151 4.50101 1.45519 -1 0 0
114 1 13.7462 5.40358 3.19769 -1 1 -2
63 2 14.1008 1.76226 3.34356 1 2 0
105 1 9.13983 5.67111 7.14931 2 1 1
122 1 13.7701 1.67949 5.56375 -3 0 2
53 2 8.48751 2.3918 2.95787 1 1 0
154 1 10.3685 2.20197 3.22413 -1 2 2
136 1 10.5893 1.38168 7.79962 -3 3 -2
144 1 6.30871 8.56918 3.40193 0 0 2
75 1 2.81298 13.9521 7.61701 -1 1 -1
173 1 5.58541 14.1628 6.69396 -1 3 1
162 1 6.94082 8.32681 6.02515 -1 0 0
17 2 4.44896 8.39686 1.93396 0 1 1
150 1 4.73023 11.3594 7.20045 2 -2 1
134 1 1.78617 13.2357 3.15883 -2 -1 1
64 1 6.8211 11.0176 4.30431 -1 -1 0
67 1 5.20406 12.5193 3.26436 2 1 1
22 2 5.09291 11.1231 4.34584 0 -1 0
49 2 2.24652 13.3768 5.55256 2 -1 -3
48 2 6.47624 8.43087 7.84186 0 0 1
78 1 3.33523 11.818 4.80153 0 2 2
176 1 3.1084 8.64732 5.35173 1 2 -2
52 2 6.65858 12.7012 7.67177 1 0 -1
166 1 4.36547 9.89434 3.07292 4 -1 2
11 2 4.75291 14.6441 3.30624 1 -1 2
57 2 3.04136 11.7796 2.72573 1 0 1
30 2 3.0217 10.8102 7.76293 1 -1 -1
34 2 2.02172 8.95007 4.17412 -1 1 0
181 1 5.46298 14.2674 1.46781 0 -2 1
86 1 7.70371 11.2211 7.81232 -1 -1 0
107 1 1.95533 10.1898 2.69482 1 2 -2
100 1 7.7542 12.9396 2.63729 0 0 3
42 2 7.92905 8.97586 2.31638 0 0 0
109 1 2.01387 11.852 6.68802 1 1 -2
98 1 7.9461 14.3423 7.65625 2 -1 -1
174 1 14.1954 8.01102 7.41373 0 2 0
10 2 8.80484 8.20863 6.2399 0 1 2
141 1 8.97563 8.31592 4.10814 0 -1 0
96 1 13.7485 8.61491 4.76905 1 1 -1
155 1 8.07581 12.7466 5.75999 1 1 -1
117 1 12.8442 13.8816 3.11675 -1 2 1
80 1 8.98655 10.5814 2.6302 -1 2 2
104 1 12.4464 10.871 4.49767 1 0 0
24 2 8.38981 11.8849 4.0026 0 0 1
161 1 10.2012 11.3798 4.66988 -1 0 0
102 1 10.5203 13.7104 5.22579 0 -2 1
152 1 12.5723 12.749 5.80487 1 -2 -1
19 2 11.7036 12.6253 4.15891 0 0 0
33 2 11.6288 9.25329 5.04336 0 -2 0
79 1 12.2898 10.0029 6.95384 -4 -1 -1
3 2 12.8629 12.1421 7.44518 -1 -2 0
172 1 10.3194 12.7694 2.42899 -2 -1 -3
37 2 11.6278 14.1701 1.36634 0 0 1
6 2 9.66674 13.2836 6.73103 0 0 -2
77 1 10.7786 8.06177 2.03678 1 -1 2
140 1 8.44693 8.71464 7.95401 2 -1 0
132 1 10.2571 11.9946 7.81929 -1 2 -3
82 1 10.5067 8.37142 6.40462 0 0 -1
115 1 3.81839 7.16693 14.1324 1 1 1
5 2 3.21926 3.39871 14.382 2 0 -2
71 1 3.50319 1.76925 13.0913 1 1 0
142 1 5.54387 4.13751 8.37349 1 -2 -1
85 1 5.87365 3.2134 11.1572 0 -1 3
56 2 4.61162 4.37131 9.91979 0 2 0
175 1 3.07171 7.04213 10.1545 -2 2 -2
60 2 7.5942 5.11244 8.28439 1 3 1
168 1 2.05485 4.97119 14.5385 0 4 -1
76 1 1.56524 3.36952 12.6484 2 0 0
41 2 5.26605 5.90731 12.7065 -1 1 -1
84 1 3.7011 5.51204 12.0096 -2 1 2
39 2 2.51035 6.45341 13.0923 -2 0 2
4 2 7.63351 2.52105 11.5674 0 2 -2
146 1 4.80415 4.62538 14.2042 0 1 -1
182 1 6.1953 5.44947 10.952 -1 -1 1
92 1 4.05126 2.43104 9.01386 1 1 1
97 1 6.92991 5.8494 13.4735 2 -1 2
185 1 1.42389 3.68355 9.57054 -1 1 0
68 1 5.27574 7.61778 12.2135 1 -1 2
120 1 10.4697 3.65921 8.49653 1 -2 -1
45 2 14.5154 1.68254 8.90287 0 -1 0
74 1 9.40864 3.84672 14.415 0 -1 -1
163 1 8.12968 3.70475 9.20417 0 1 -1
28 2 8.86641 1.82712 9.16731 -1 0 -1
153 1 12.1772 3.84908 12.8957 -1 1 0
43 2 10.5195 4.21699 12.8753 0 1 0
113 1 8.04379 6.70583 9.84541 0 -2 0
29 2 13.6521 4.06278 11.2276 -2 0 -1
88 1 14.116 5.92827 12.1106 0 0 0
2 2 10.908 5.15674 9.26308 -1 -1 1
27 2 12.9853 7.21743 11.3131 2 -1 -1
183 1 12.8397 5.21665 10.1076 1 -3 0
143 1 10.3403 5.35901 10.9381 1 -1 3
99 1 8.7655 3.94331 12.0532 1 -1 -2
119 1 13.452 2.02245 11.184 -3 0 -2
128 1 10.3212 6.16567 13.6828 2 -1 0
46 2 8.18587 6.05633 11.6949 0 1 0
180 1 13.3321 1.42176 13.9455 0 -1 -3
178 1 9.30495 1.62771 11.0449 1 -1 -1
149 1 14.0791 7.64569 14.5039 0 1 -1
81 1 11.4605 7.14583 9.68732 2 2 0
133 1 9.57241 7.71683 11.5673 -1 -4 0
65 1 3.91045 12.1983 14.529 0 -2 0
103 1 3.11901 8.97093 8.14298 2 4 -1
108 1 5.45697 13.2622 8.89036 -1 -2 -2
90 1 7.23617 14.6039 9.97937 1 -1 0
89 1 2.04198 8.04982 11.8776 0 0 -3
91 1 3.3446 11.4912 9.30273 4 -3 -1
20 2 4.1802 13.5256 13.3427 0 -3 1
72 1 7.03852 14.0806 12.4063 -1 0 -1
40 2 3.8196 13.9271 9.13555 0 1 0
58 2 2.7649 8.89278 10.2538 1 1 1
70 1 4.67573 13.5404 11.4015 1 -1 0
26 2 4.58473 10.7194 12.9779 0 0 -1
93 1 6.33723 10.9233 10.6042 -1 -1 2
66 1 5.75151 8.363 9.31131 -3 -1 -1
158 1 5.69059 8.99552 14.0234 -1 2 1
171 1 1.75807 10.0879 10.9609 -2 1 1
187 1 3.07718 9.55969 13.6566 0 0 0
13 2 6.32517 12.9004 10.7105 0 -2 1
118 1 4.16088 9.90225 11.2996 1 1 -1
138 1 5.60379 12.231 13.0022 -1 2 0
61 2 5.85263 9.07117 10.9821 -2 0 1
23 2 1.69883 11.9518 10.4635 1 1 2
184 1 2.53328 12.8227 12.3883 2 0 -2
25 2 7.05846 13.2183 14.1369 0 0 -2
101 1 2.22797 13.8653 10.1054 2 1 1
32 2 1.45668 14.5451 12.5587 1 0 1
139 1 13.538 13.475 8.62377 -3 1 0
50 2 9.95458 11.4686 14.6241 1 -2 -2
131 1 9.13383 14.0073 13.5114 -1 3 -2
69 1 13.6321 8.26128 9.94135 -1 -1 1
87 1 12.4743 8.39876 12.7816 0 0 1
1 2 9.23933 13.0935 11.8276 0 1 -2
127 1 8.55707 9.57988 10.0426 1 -1 1
106 1 8.17734 11.7449 13.6477 1 -2 0
16 2 10.5257 8.29254 13.4942 0 0 -1
35 2 14.3113 9.12727 13.3932 -1 0 -4
83 1 8.37282 12.6733 10.2601 -2 -1 1
129 1 11.3694 12.4489 13.487 -2 1 -2
116 1 8.63282 8.6108 13.9449 1 0 0
186 1 13.8745 10.9618 13.3503 1 -2 1
44 2 9.53246 8.13725 9.7044 0 1 0
12 2 9.35681 10.4582 8.5857 1 1 0
38 2 12.1971 11.2886 12.3915 1 0 0
137 1 11.0454 9.32831 8.97982 1 1 -1
169 1 10.5713 11.608 11.5053 1 -1 2
95 1 10.9864 10.2528 13.7244 0 1 0
160 1 13.2223 12.5312 11.0532 1 0 -1
148 1 13.9972 10.996 8.84038 -1 0 2
8 2 12.9942 9.18622 8.40846 -1 0 1
ITEM: TIMESTEP
10000
ITEM: NUMBER OF ATOMS
189
ITEM: BOX BOUNDS pp pp pp
1.3174271398306958e+00 1.4682572860169177e+01
1.3174271398306958e+00 1.4682572860169177e+01
1.3174271398306958e+00 1.4682572860169177e+01
ITEM: ATOMS id type x y z ix iy iz
47 2 4.01925 6.48486 2.03614 1 0 2
55 2 1.91211 4.20086 5.58472 0 1 1
189 1 2.20856 2.44945 3.44166 0 1 2
142 1 3.03074 2.98053 5.99284 1 -2 -1
7 2 5.47288 4.7909 4.75191 -1 0 0
18 2 6.87542 4.6226 1.58271 0 0 -1
130 1 14.1286 7.42099 5.91641 2 0 0
73 1 5.64098 2.90267 4.44167 -2 0 -1
144 1 2.99209 7.80116 2.38458 0 0 2
97 1 5.27398 5.33319 2.82559 2 -1 3
66 1 6.37865 6.13906 5.64579 -3 -1 -1
31 2 14.6273 3.34853 2.30494 0 0 1
166 1 2.65399 4.83933 1.96475 4 -1 2
146 1 6.08878 3.00975 1.77029 0 1 0
74 1 6.0682 7.4813 1.36156 0 -1 0
92 1 5.43338 4.12795 6.69886 1 1 1
111 1 14.0417 4.50219 4.25523 -3 -1 5
121 1 4.00409 1.62304 1.59982 1 2 1
165 1 5.28296 8.0715 3.63637 2 0 2
22 2 5.89156 7.97777 5.41076 0 -1 0
89 1 3.63582 5.17974 4.77489 0 0 -2
105 1 3.13422 3.64664 8.60609 2 1 1
60 2 6.82999 5.6815 7.26579 1 3 1
157 1 8.52862 4.76463 2.73357 0 3 1
177 1 8.00481 4.34262 6.97705 0 0 0
51 2 8.80677 14.0523 3.86278 0 -3 1
167 1 13.979 5.3431 8.98433 2 1 0
122 1 11.6505 14.2802 1.42861 -3 -1 2
188 1 10.042 5.89122 4.40956 -1 1 2
114 1 13.6641 6.74967 14.6542 -1 1 -3
170 1 11.7071 4.4886 3.28042 0 2 2
179 1 11.3644 3.55207 5.35396 2 1 1
14 2 11.8534 5.76995 4.89148 -1 0 0
136 1 12.2695 5.76678 6.71945 -3 3 -2
82 1 12.722 6.82884 3.71805 0 0 -1
126 1 13.0297 1.82437 3.24529 -2 -1 1
6 2 9.54749 4.11242 3.97013 0 1 -2
161 1 8.61814 2.67126 5.06251 -1 1 0
37 2 11.6869 2.77537 2.17124 0 1 1
3 2 12.3661 1.95071 5.59947 -1 -1 0
36 2 9.85995 6.56268 8.1428 0 0 0
53 2 12.4575 5.63358 1.96204 1 1 0
159 1 12.4801 14.4194 7.30578 0 -2 0
156 1 8.36968 2.61126 8.97042 1 1 0
168 1 5.84708 12.9657 3.51722 0 3 0
11 2 4.92632 1.70931 3.33883 1 0 2
72 1 8.00346 13.5809 2.19395 -1 0 0
125 1 3.62537 13.5122 4.20651 1 -1 -2
94 1 9.03489 8.25998 8.60028 0 2 1
151 1 7.26059 11.7695 7.6844 -1 1 1
49 2 3.80609 11.9267 4.96106 2 -1 -3
162 1 6.1837 9.45077 6.60706 -1 0 0
134 1 14.4485 13.1962 2.42963 -3 -1 1
67 1 3.28648 9.76591 7.09432 2 1 1
78 1 5.05149 10.7069 4.49309 0 2 2
176 1 2.62301 12.7003 6.62855 1 2 -2
34 2 3.70834 9.30428 3.20508 -1 1 0
86 1 2.40477 8.97814 4.50122 -1 -1 0
52 2 7.21152 11.3223 5.31852 1 0 -1
155 1 5.34002 12.7187 6.09032 1 1 -1
80 1 7.61334 10.6702 3.64812 -1 2 2
143 1 5.11797 10.1404 2.17198 1 -1 4
135 1 7.40729 8.54258 4.58017 2 2 0
24 2 6.9747 8.90493 2.79737 0 0 1
132 1 8.06272 12.8936 5.59792 -1 2 -3
186 1 14.295 9.40258 2.28573 1 -2 2
140 1 4.33146 7.64166 6.45346 2 -1 0
30 2 2.24634 8.466 6.30621 1 -1 -1
48 2 5.00949 9.62146 8.20008 0 0 1
9 2 1.6411 14.0368 4.04945 0 -2 -1
54 2 9.34696 7.57599 4.65078 1 1 2
98 1 10.0042 14.61 7.50525 2 -1 -1
59 2 13.8713 8.49216 4.14093 0 0 2
102 1 9.92032 2.47805 3.02217 0 -1 1
64 1 8.60928 6.7193 6.37257 -1 -1 0
141 1 12.269 9.3817 4.14627 0 -1 0
107 1 13.8338 9.77184 5.81771 0 2 -2
109 1 13.9901 3.58065 6.85522 0 2 -2
33 2 13.8739 13.3857 7.13949 0 -2 0
42 2 10.9191 10.5864 4.03627 0 0 0
96 1 10.351 10.4049 2.35187 1 1 -1
117 1 13.8017 14.0025 5.46933 -1 2 1
104 1 11.4421 11.4292 5.59354 1 0 0
19 2 10.3881 13.0629 6.41191 0 0 0
172 1 11.1712 14.2415 5.01352 -2 -1 -3
154 1 9.77141 12.5513 4.07531 -1 1 2
116 1 9.61869 9.25158 4.9546 1 0 1
8 2 12.1109 10.0256 6.68707 -1 0 1
95 1 12.1176 11.9401 3.16558 0 1 1
79 1 9.71494 11.766 7.30645 -4 -1 -1
43 2 10.0489 8.63073 1.47156 0 1 1
164 1 9.22266 7.97934 2.84951 1 0 1
124 1 10.5085 12.4462 13.2486 -2 -2 -1
50 2 11.5122 12.4733 1.56583 1 -2 -1
173 1 6.76121 1.38998 7.39137 -1 4 1
21 2 4.70674 2.72264 7.52658 0 -1 2
5 2 3.1436 14.2484 13.234 2 -1 -2
115 1 4.8629 5.32751 13.7254 1 1 1
71 1 2.19573 2.88089 13.8529 1 1 0
56 2 6.54987 5.30464 10.6574 0 2 0
76 1 5.47629 5.98986 8.65433 2 0 0
41 2 3.8411 3.77978 13.8093 -1 1 -1
84 1 8.14068 6.01239 8.95469 -2 1 2
39 2 3.20957 5.45235 8.71275 -2 0 2
185 1 5.41671 2.8625 9.35657 -1 1 0
187 1 2.10963 7.71353 12.5399 0 0 0
69 1 4.78451 4.94553 11.0509 0 -1 1
17 2 3.74332 6.47247 12.0605 0 1 0
70 1 4.30321 2.4587 12.3941 1 0 0
77 1 2.74009 4.97373 12.8046 2 -1 1
91 1 2.90085 6.56365 10.2468 4 -3 -1
93 1 8.81018 7.4926 13.5959 -1 -1 2
85 1 7.71681 6.47741 11.1542 0 -1 3
175 1 2.45332 5.72967 7.07664 -2 2 -2
131 1 7.07531 3.73604 10.9593 -1 4 -2
28 2 8.36739 2.55579 6.90403 -1 0 -1
88 1 1.38627 3.23052 10.425 1 0 0
29 2 14.627 3.60368 12.2964 -2 0 -1
35 2 14.144 8.14559 13.7544 -1 0 -4
20 2 5.24475 2.21814 10.8828 0 -2 1
147 1 4.16336 13.198 12.2676 -1 -1 -2
16 2 6.93938 7.84287 13.1895 0 0 -1
62 2 13.3071 6.78499 7.65592 -2 -1 1
174 1 11.8554 8.07087 7.55961 0 2 0
182 1 7.90983 5.30823 13.625 -1 -1 1
4 2 8.58111 2.92861 11.7677 0 2 -2
145 1 11.1622 6.49723 9.62709 1 1 -2
15 2 14.6138 3.54221 8.59602 0 0 0
112 1 11.0941 7.06182 1.91337 0 2 1
100 1 10.7422 4.72202 14.1634 0 1 2
120 1 9.83176 8.81411 11.5767 1 -2 -1
46 2 9.68091 5.96059 13.0974 0 1 0
149 1 13.2189 3.70769 14.523 0 1 -1
153 1 1.78796 1.55454 12.0765 0 1 0
110 1 11.5702 3.33555 9.78007 -4 1 -1
113 1 9.82092 4.75384 11.4463 0 -2 0
2 2 11.5522 4.93295 11.0309 -1 -1 1
183 1 13.169 4.84129 12.0103 1 -3 0
99 1 11.2913 6.45401 12.1628 1 -1 -2
119 1 9.86669 1.77624 10.5895 -3 0 -2
171 1 13.4771 7.70955 10.1642 -3 1 1
181 1 9.1973 2.02097 13.1384 0 -1 0
1 2 10.9085 1.69309 9.07364 0 2 -2
63 2 1.45877 11.4545 1.88751 2 1 0
75 1 4.31408 14.1291 7.73433 -1 1 -1
138 1 5.48337 7.40053 12.0422 -1 2 0
65 1 3.03362 11.1399 3.33821 0 -2 1
103 1 1.43264 8.05187 8.16417 2 4 -1
61 2 5.67964 9.31122 11.1655 -2 0 1
25 2 8.16504 13.7891 13.6665 0 0 -2
127 1 4.40843 11.6398 8.67347 1 -1 1
57 2 2.70537 11.2212 12.1792 1 0 0
150 1 2.33542 13.0319 10.1831 2 -2 1
90 1 5.58202 13.8566 10.4415 1 -1 0
68 1 6.20643 9.11195 9.22767 1 -1 2
108 1 4.09195 9.87819 12.1314 -1 -2 -2
40 2 5.97353 13.0273 8.04296 0 1 0
26 2 6.26387 11.735 2.07618 0 0 0
158 1 7.68751 9.5918 14.3657 -1 2 1
184 1 3.77062 8.8671 9.64916 2 0 -2
13 2 5.97171 12.839 11.8509 0 -2 1
129 1 6.65392 1.63653 12.5414 -2 2 -2
133 1 5.9154 11.1507 11.2454 -1 -4 0
106 1 6.35259 12.9161 13.773 1 -2 0
180 1 2.34889 12.5578 13.568 1 -2 -3
137 1 7.3565 9.03713 11.9931 1 1 -1
45 2 3.10284 13.0617 8.62266 1 -2 0
58 2 1.66998 8.58382 9.82713 1 1 1
12 2 8.71626 11.9747 8.99262 1 1 0
10 2 8.47918 8.47117 10.3484 0 1 2
123 1 1.52232 14.257 8.31235 0 -3 -1
27 2 11.9665 8.18288 11.0481 2 -1 -1
163 1 8.56433 10.7398 10.4172 0 1 -1
101 1 13.6754 12.2759 11.9605 1 1 1
139 1 13.3329 11.761 7.92189 -3 1 0
32 2 14.1269 13.9701 10.8844 0 0 1
169 1 12.5857 13.6542 10.0298 1 -1 2
148 1 1.43285 10.3457 10.9771 0 0 2
152 1 11.6441 10.2766 8.52253 1 -2 -1
81 1 12.8068 8.63486 12.7068 2 2 0
118 1 1.70874 10.0124 13.5012 1 1 -1
128 1 8.23669 12.5195 12.0011 2 -1 0
178 1 13.2279 11.7918 14.3609 1 -2 -1
44 2 9.24681 10.8131 12.0918 0 1 0
23 2 12.1519 11.7894 9.49514 0 1 2
87 1 10.7214 9.93239 13.4228 0 0 1
83 1 10.6717 12.7903 9.01792 -2 -1 1
38 2 12.9091 10.6109 12.4493 1 0 0
160 1 11.5148 10.7016 11.0404 1 0 -1
ITEM: TIMESTEP
20000
ITEM: NUMBER OF ATOMS
189
ITEM: BOX BOUNDS pp pp pp
1.3415251853240626e+00 1.4658474814675799e+01
1.3415251853240626e+00 1.4658474814675799e+01
1.3415251853240626e+00 1.4658474814675799e+01
ITEM: ATOMS id type x y z ix iy iz
47 2 4.34804 5.63797 2.05285 1 0 2
97 1 3.08275 4.49304 14.3181 2 -1 2
111 1 4.04093 4.87417 6.34207 -2 -1 5
86 1 2.44594 6.47512 6.46871 -1 -1 0
181 1 5.49051 3.66384 3.98088 0 -1 1
14 2 2.2786 5.35804 5.13328 0 0 0
25 2 7.81312 2.17611 3.8236 0 1 -1
157 1 5.90747 6.42128 6.54416 0 3 1
93 1 8.5025 6.35316 1.8332 -1 -1 3
22 2 5.95523 4.70758 5.79697 0 -1 0
119 1 7.80678 14.0506 1.8507 -3 -1 -1
146 1 7.88666 4.09835 2.97393 0 1 0
165 1 5.22541 6.22888 3.84562 2 0 2
30 2 5.23168 8.19576 5.97762 1 -1 -1
142 1 14.4556 3.9846 8.23392 0 -2 -1
166 1 2.89904 4.99622 3.4553 4 -1 2
64 1 7.23337 2.82027 5.6809 -1 -1 0
151 1 4.58214 1.52635 1.45805 -1 2 1
135 1 6.85543 8.63166 6.26884 2 2 0
36 2 13.2354 5.31772 8.22059 0 0 0
121 1 1.63269 2.83111 13.5695 1 2 0
102 1 9.80718 2.68358 4.95685 0 -1 1
100 1 7.70267 5.26376 5.43585 0 1 3
132 1 10.3775 4.96754 4.27128 -1 3 -3
189 1 13.2782 2.35894 2.51349 -1 1 2
188 1 1.49512 3.68203 5.79835 0 1 2
179 1 12.5271 1.45954 7.45341 2 1 1
82 1 11.7179 7.00821 8.15898 0 0 -1
6 2 13.7845 2.12015 6.0055 0 1 -2
37 2 11.8215 3.91289 3.68353 0 1 1
159 1 13.5881 6.56924 6.84345 0 -1 0
54 2 9.57577 4.53982 5.86624 1 1 2
66 1 8.13062 7.35205 4.38302 -3 -1 -1
170 1 13.7885 4.87607 4.01712 0 2 2
114 1 11.4835 7.33288 2.45013 -1 1 -2
31 2 1.58949 4.15035 2.63731 1 0 1
126 1 12.4702 2.77557 5.00167 -2 -1 1
59 2 11.7445 6.654 6.3006 0 0 2
18 2 7.28268 5.8985 3.18522 0 0 -1
85 1 11.9015 4.98304 6.31467 0 -1 3
104 1 9.78184 6.48402 6.39904 1 0 0
89 1 9.17051 8.15903 8.10935 0 0 -2
161 1 11.1738 14.2167 3.29392 -1 0 0
52 2 8.30276 7.58395 6.02469 1 0 -1
11 2 4.3803 1.91711 4.16189 1 0 2
106 1 2.90347 2.56773 2.9871 1 -1 1
162 1 4.08812 8.58755 7.43344 -1 0 0
73 1 1.77374 10.6627 4.10099 -2 -1 -1
144 1 4.03919 8.683 4.64107 0 0 2
140 1 5.25856 10.9986 6.06676 2 -1 0
168 1 7.38746 11.6175 4.50575 0 3 0
49 2 5.37498 12.6646 4.5669 2 -1 -3
67 1 13.8714 11.8099 6.22056 1 1 1
78 1 4.32334 11.1579 3.67976 0 2 2
34 2 2.84784 1.40198 14.0493 -1 2 -1
176 1 5.90535 14.3323 3.50862 1 2 -2
45 2 8.01918 11.7496 2.89895 1 -2 0
57 2 3.12802 9.50845 3.44259 1 0 1
127 1 3.25853 11.9684 6.85827 1 -1 1
40 2 1.95734 12.4451 5.06807 0 1 0
75 1 6.03265 13.9085 5.79038 -1 1 -1
185 1 3.41905 13.58 4.50467 -1 0 0
70 1 8.40227 11.7105 8.15882 1 -1 0
147 1 4.17661 9.5822 1.60496 -1 -1 -1
12 2 3.79145 10.5338 7.90124 1 1 0
53 2 10.0806 8.52859 2.06291 1 1 0
80 1 9.75024 12.1354 2.03558 -1 2 2
48 2 7.38371 10.9857 6.72655 0 0 1
51 2 10.3037 13.9679 5.19846 0 -3 1
180 1 1.69111 8.60974 2.50719 1 -2 -2
79 1 9.02051 10.5126 6.13584 -4 -1 -1
130 1 10.3122 9.64569 3.50834 2 0 0
125 1 14.2693 13.7566 14.3161 0 -1 -3
9 2 13.2651 14.0073 2.78968 -1 -2 -1
116 1 8.54368 9.23831 14.5609 1 0 0
107 1 11.1914 8.28386 5.59026 0 2 -2
33 2 13.6913 10.0619 2.85408 0 -2 0
19 2 10.7767 10.147 5.27693 0 0 0
172 1 13.9666 14.1189 4.5174 -2 -1 -3
95 1 10.8097 12.1781 4.86894 0 1 1
139 1 12.4947 10.0157 4.43762 -3 1 0
98 1 10.0497 13.9725 7.14844 2 -1 -1
50 2 9.83014 14.262 1.94699 1 -2 -1
145 1 11.6738 10.3849 7.29169 1 1 -2
58 2 13.2363 9.72356 6.71142 0 1 1
134 1 8.81399 13.9337 4.1263 -3 -1 1
88 1 1.71346 1.37904 7.05183 1 0 0
28 2 10.0612 12.2044 7.82516 -1 -1 -1
186 1 13.0931 11.962 2.65653 1 -2 2
55 2 5.91955 5.27919 8.71047 0 1 1
105 1 4.35628 2.18004 7.00322 2 1 1
26 2 6.25027 1.80501 7.39507 0 1 0
84 1 6.12682 3.87595 7.64298 -2 1 2
3 2 3.09457 3.75022 7.7836 0 -1 0
187 1 3.37351 6.99685 1.64024 0 0 1
136 1 1.33389 6.29637 8.95963 -2 3 -2
128 1 7.69392 4.79286 13.4901 2 0 0
92 1 3.9727 5.54735 8.67266 1 1 1
74 1 6.07618 6.19758 1.37434 0 -1 0
109 1 1.74824 9.31147 6.825 1 2 -2
7 2 7.28498 6.70725 13.0449 -1 0 -1
21 2 2.62444 14.2941 10.6501 0 -2 2
62 2 2.66441 7.51495 7.91215 -1 -1 1
123 1 2.46581 12.8764 9.31829 0 -3 -1
71 1 3.55906 2.634 12.0641 1 1 0
115 1 3.11437 2.157 9.1974 1 1 1
56 2 6.26062 3.50611 12.4814 0 2 0
91 1 6.08417 7.9863 12.0048 4 -3 -1
167 1 13.841 4.38431 11.648 2 1 0
16 2 4.589 6.77184 11.2555 0 0 -1
149 1 5.08752 5.2674 12.6588 1 1 -1
137 1 5.92268 4.09384 10.4013 1 1 -1
41 2 2.47178 4.16052 12.5189 -1 1 -1
13 2 6.08221 14.1952 14.6005 0 -2 1
182 1 7.72107 6.17213 11.0004 -1 -1 1
143 1 6.30957 2.72776 14.0252 1 0 3
60 2 7.97332 3.78365 9.99685 1 3 1
77 1 13.6813 5.26206 14.0177 1 -1 1
174 1 8.14067 5.22688 8.65675 0 2 0
169 1 9.6685 2.86832 1.80069 1 0 3
177 1 7.3482 2.39683 8.73176 0 0 0
35 2 12.0626 6.24761 14.3739 -1 0 -4
173 1 10.1694 3.7713 7.58872 -1 4 1
17 2 14.0348 6.10725 10.8957 -1 1 0
152 1 12.4686 5.16078 10.1191 1 -2 -1
69 1 10.4899 5.83517 13.1618 0 -1 1
164 1 12.4949 6.95307 11.7736 1 0 0
29 2 11.547 3.89332 10.9572 -2 0 -1
4 2 9.09334 4.76429 1.44367 0 2 -1
46 2 10.6222 7.13874 11.978 0 1 0
110 1 11.9115 2.55286 9.81457 -4 1 -1
113 1 11.1757 4.79901 1.87816 0 -2 1
1 2 10.4056 2.12744 8.34786 0 2 -2
94 1 9.59412 4.38249 10.7548 0 2 1
8 2 9.07945 6.61584 9.29111 -1 0 1
131 1 7.44597 2.78424 11.4877 -1 4 -2
32 2 13.0827 14.1124 9.00931 0 0 1
178 1 11.9956 2.5332 12.4172 1 -1 -1
158 1 5.8282 12.2245 1.83325 -1 2 2
96 1 6.67612 10.9071 13.1934 1 1 -2
175 1 4.32378 8.25343 10.2224 -2 2 -2
39 2 6.29251 8.72043 9.71694 -2 0 2
103 1 2.59571 5.78539 11.7359 2 4 -1
138 1 5.20509 13.3088 8.36384 -1 1 0
133 1 7.25585 9.84138 10.6728 -1 -4 0
150 1 2.11334 13.5284 12.2715 2 -2 1
108 1 3.48666 8.53185 12.5884 -1 -2 -2
155 1 4.45505 11.0597 9.58215 1 1 -1
24 2 4.85018 11.1843 14.142 0 0 0
15 2 3.50262 13.722 7.70201 1 -1 0
20 2 5.25454 12.5855 10.3473 0 -3 1
129 1 4.30638 13.7715 11.0923 -2 1 -2
61 2 3.17251 9.65916 11.1706 -2 0 1
68 1 3.21321 12.9074 14.3022 1 -1 2
184 1 2.24054 9.98786 8.92731 2 0 -2
72 1 6.88475 12.9312 10.5271 -1 0 -1
120 1 6.4257 10.0924 8.36778 1 -2 -1
101 1 13.0696 12.2034 10.5579 1 1 1
87 1 3.70364 11.0471 12.6752 0 0 1
63 2 2.68692 8.44445 14.0272 2 1 -1
117 1 11.6031 13.787 14.5125 -1 2 0
76 1 5.81965 6.84038 9.61417 2 0 0
112 1 11.008 8.21236 13.626 0 2 0
183 1 1.78646 8.50123 10.8037 2 -3 0
153 1 14.5771 10.4077 14.1825 -1 0 0
154 1 8.77669 8.1342 12.3166 -1 1 1
163 1 11.146 13.4998 9.066 0 1 -1
43 2 8.33292 10.0052 12.5487 0 1 0
171 1 1.62602 10.7807 11.5308 -2 1 1
5 2 1.6125 11.7614 13.1261 2 -1 -2
42 2 11.4887 11.9692 1.62864 0 0 0
90 1 10.6484 10.7209 9.77757 1 -1 0
122 1 7.44378 13.9999 12.7665 -3 -1 1
65 1 13.9415 8.22273 13.4018 -1 -2 0
10 2 11.5437 11.7684 11.3388 0 1 2
83 1 12.0176 11.9206 13.0932 -2 -1 1
156 1 9.27105 2.10223 9.63631 1 1 0
2 2 12.557 9.41409 13.0086 -1 -1 1
99 1 10.403 7.49432 10.2292 1 -1 -2
118 1 12.2918 9.78567 11.2533 0 1 -1
44 2 8.41618 14.2125 11.4228 0 1 0
141 1 11.9102 9.86189 1.45734 0 -1 0
148 1 12.8861 9.03827 8.89009 -1 0 2
124 1 10.197 13.1833 11.7301 -2 -2 -1
27 2 10.9244 9.00968 9.03167 2 -1 -1
81 1 10.0852 10.503 12.2143 2 2 0
23 2 13.3358 1.91622 13.0864 0 2 2
38 2 14.0337 9.93162 10.1218 1 0 0
160 1 14.0828 14.6589 10.5209 1 0 -1
ITEM: TIMESTEP
30000
ITEM: NUMBER OF ATOMS
189
ITEM: BOX BOUNDS pp pp pp
1.3748660779879973e+00 1.4625133922011877e+01
1.3748660779879973e+00 1.4625133922011877e+01
1.3748660779879973e+00 1.4625133922011877e+01
ITEM: ATOMS id type x y z ix iy iz
111 1 3.05898 7.20673 4.58137 -2 -1 5
181 1 4.13641 4.20157 5.09902 0 -1 1
14 2 14.4032 7.53616 4.21916 -1 0 0
25 2 3.38941 2.57086 5.09826 0 1 -1
3 2 1.89723 4.9449 2.28681 0 -1 0
115 1 3.80314 1.72355 6.81703 1 1 1
55 2 3.36979 6.0294 5.94669 0 1 1
173 1 5.29158 6.20261 5.32342 -1 4 1
64 1 8.34927 4.2868 6.41853 -1 -1 0
119 1 5.31606 1.8811 2.63246 -3 0 -1
26 2 8.08889 2.22367 6.59612 0 1 0
188 1 6.24985 2.44454 6.36281 0 1 2
134 1 2.64868 2.46689 3.43238 -3 0 1
75 1 3.73745 7.34625 7.1503 -1 1 -1
22 2 5.77842 4.4819 3.89821 0 -1 0
165 1 5.63986 7.11937 2.85292 2 0 2
144 1 5.48196 9.13097 6.06852 0 0 2
11 2 3.28021 14.0104 2.5772 1 -1 2
126 1 13.354 4.0505 2.25317 -2 -1 1
138 1 4.02076 13.8849 4.4053 -1 1 0
106 1 3.90521 4.92067 2.31966 1 -1 1
93 1 6.11045 4.58809 1.93871 -1 -1 3
97 1 3.15138 7.27633 14.6007 2 -1 2
105 1 6.6452 4.83483 8.39761 2 1 1
79 1 10.1947 6.5862 7.75844 -4 -1 -1
66 1 11.7656 5.39431 3.17676 -3 -1 -1
179 1 12.4974 4.63108 6.45928 2 1 1
50 2 8.45459 2.09623 2.80592 1 -1 -1
6 2 14.2254 2.47799 7.25547 0 1 -2
77 1 14.5145 5.49523 3.91716 1 -1 2
100 1 7.61621 3.20639 4.26241 0 1 3
102 1 13.5272 14.1404 6.40691 0 -2 1
132 1 9.94877 3.51419 3.16258 -1 3 -3
37 2 12.8774 4.65351 4.78627 0 1 1
54 2 8.9737 4.57573 4.75428 1 1 2
59 2 10.8699 7.48862 3.5117 0 0 2
104 1 13.9382 6.80733 5.99592 1 0 0
80 1 12.686 2.88125 4.50469 -1 3 2
189 1 9.99829 14.1539 3.23501 -1 0 2
52 2 12.3696 4.93467 8.35728 1 0 -1
154 1 12.678 7.78165 4.07593 -1 1 2
84 1 10.1916 5.95948 4.78741 -2 1 2
60 2 8.65243 5.19633 8.1253 1 3 1
116 1 7.82282 5.5676 3.77614 1 0 1
107 1 9.5375 6.80176 2.4688 0 2 -2
9 2 13.4544 1.84194 2.48184 -1 -1 -1
161 1 1.80939 3.25581 5.72116 0 1 0
43 2 7.58875 6.86369 2.52905 0 1 1
36 2 13.0504 8.32803 6.97058 0 0 0
109 1 9.84583 3.91634 8.16575 0 2 -2
30 2 6.30152 9.7278 7.70986 1 -1 -1
62 2 3.32198 9.49516 6.34467 -1 -1 1
47 2 4.26765 11.1809 2.52992 1 0 2
86 1 4.49501 9.44605 3.45167 -1 -1 0
176 1 5.5486 11.9866 3.47096 1 2 -2
57 2 5.30027 8.15168 4.45175 1 0 1
158 1 7.00937 11.1742 6.76029 -1 2 2
125 1 1.48309 14.3609 14.2497 1 -1 -3
73 1 3.90513 11.408 4.9255 -2 -1 -1
180 1 2.54755 11.9465 2.4711 1 -2 -2
32 2 5.25152 12.4884 5.24029 1 0 1
159 1 1.63721 9.60709 5.63844 1 -1 0
24 2 7.02907 11.972 2.35027 0 0 1
184 1 12.8567 10.9093 7.8271 1 0 -2
69 1 7.4229 13.6533 2.79038 0 -2 2
130 1 7.48855 10.5361 3.62702 2 0 0
67 1 1.44447 13.5605 3.91537 2 1 1
33 2 1.92893 11.9553 4.88744 1 -2 0
101 1 5.11001 12.882 7.14311 2 1 1
113 1 14.5393 8.40885 2.68063 0 -2 1
108 1 4.54126 12.8848 1.40727 -1 -2 -1
124 1 7.96976 13.3073 6.62762 -2 -2 -1
127 1 13.7017 13.5807 8.87837 0 -1 1
177 1 9.581 1.80433 5.82917 0 0 0
45 2 8.08745 9.64684 5.04416 1 -2 0
94 1 11.364 12.8709 6.50393 0 1 1
96 1 7.37874 8.23112 4.22598 1 1 -1
139 1 11.6827 9.34355 6.01113 -3 1 0
49 2 9.83635 8.76632 8.3382 2 -1 -3
40 2 13.0578 12.5022 7.20084 -1 1 0
168 1 8.45062 8.96287 7.02624 0 3 0
51 2 11.2197 13.9643 5.16241 0 -3 1
19 2 11.8168 10.9133 4.94233 0 0 0
98 1 9.72079 9.18031 3.45814 2 -1 -1
186 1 12.9416 13.3135 2.29854 1 -2 2
141 1 12.9106 10.3331 3.34152 0 -1 0
148 1 13.4068 11.8184 5.53986 -1 0 2
147 1 7.77784 8.80134 1.63092 -2 -1 -1
42 2 9.76262 9.45682 1.52439 0 0 0
53 2 13.0566 9.31738 1.89258 1 1 0
83 1 9.99239 11.0118 5.3736 -2 -1 2
28 2 9.55402 12.4312 7.54483 -1 -1 -1
187 1 9.28546 11.5554 1.81761 0 0 1
153 1 11.5146 12.3957 3.96367 -1 0 1
81 1 11.6175 8.3377 1.95365 2 2 1
23 2 10.6831 12.5246 1.89419 0 1 3
122 1 3.7799 1.90929 14.055 -3 0 1
166 1 1.8648 4.63968 13.7188 4 -1 1
20 2 5.71821 3.29402 8.10129 0 -2 1
15 2 5.10982 6.45424 8.71048 1 0 0
157 1 6.1626 7.97302 8.61135 0 3 1
31 2 4.23086 6.71944 11.4411 1 0 0
146 1 8.06364 2.63975 14.3415 0 1 -1
18 2 4.78154 6.45468 14.4229 0 0 -2
128 1 5.14602 5.46719 12.5271 2 0 0
7 2 7.26464 6.20182 11.9928 -1 0 -1
149 1 3.96877 8.17762 9.97696 1 1 -1
137 1 5.93909 6.67968 10.5511 1 1 -1
169 1 6.23562 2.92225 12.5976 1 0 2
71 1 4.41639 4.94798 7.72564 1 1 0
4 2 5.40545 2.89024 14.2722 0 2 -2
92 1 3.66638 5.78223 9.90983 1 1 1
175 1 4.78706 8.28164 12.6315 -2 2 -2
56 2 8.11075 2.69708 12.2135 0 2 0
91 1 8.27195 4.71942 12.3846 4 -3 -1
72 1 4.31748 3.07695 9.33091 -1 1 -1
143 1 2.59269 8.17497 12.1084 1 -1 3
41 2 11.2544 4.01647 1.90394 -2 1 0
172 1 12.4401 2.57245 8.39022 -2 0 -3
121 1 3.11717 2.71379 11.6891 1 2 0
76 1 8.29108 5.49761 10.0496 2 0 0
89 1 7.66946 2.13091 8.34981 0 0 -2
85 1 2.2103 1.73155 8.56065 1 -1 3
150 1 11.9044 2.30432 1.39989 1 -1 2
16 2 2.74819 4.42689 9.23134 0 0 -1
82 1 14.5359 4.28782 7.96517 0 0 -1
114 1 11.0276 3.58588 13.0684 -1 1 -3
88 1 14.0495 3.348 10.2217 0 0 0
21 2 13.6175 1.66165 10.2115 -1 -1 2
167 1 11.4191 14.4399 10.6838 2 0 0
35 2 14.0669 4.25841 12.1941 -1 0 -4
152 1 9.99008 3.31776 10.6906 1 -2 -1
46 2 9.96627 4.80181 11.8166 0 1 0
8 2 10.6832 2.29694 8.95792 -1 0 1
99 1 10.8757 6.35704 11.4712 1 -1 -2
112 1 12.8746 6.03129 12.7064 0 2 0
103 1 14.4437 6.02713 10.6949 1 4 -1
145 1 12.0649 4.91011 10.1367 1 1 -2
27 2 12.5727 6.82413 10.6912 2 -1 -1
90 1 13.4834 6.62748 8.32204 1 -1 0
12 2 6.69468 12.762 8.04293 1 1 0
74 1 6.61349 7.05831 13.6723 0 -1 -1
131 1 7.38553 1.88656 10.4864 -1 4 -2
17 2 1.74054 8.40169 9.91329 0 1 0
185 1 6.2814 11.1422 13.944 -1 0 -1
162 1 5.89091 11.3447 8.95605 -1 0 0
44 2 4.76216 2.10248 10.7598 0 2 0
13 2 2.73716 14.3254 12.7081 0 -2 1
140 1 3.73052 10.3862 14.1637 2 -1 -1
142 1 4.20748 10.0811 7.89212 1 -2 -1
151 1 4.34582 13.8267 11.9716 -1 1 0
78 1 4.2383 11.2773 11.4496 0 2 1
63 2 2.80958 8.98829 13.7477 2 1 -1
61 2 4.09024 10.3467 9.74477 -2 0 1
68 1 6.77108 13.1121 11.9746 1 -1 2
120 1 7.90233 7.94111 12.0868 1 -2 -1
87 1 4.8531 13.981 9.27356 0 0 1
10 2 5.01382 12.2444 12.7245 0 1 2
38 2 3.38 13.5723 7.82362 2 0 0
174 1 6.88064 9.93824 11.4881 0 1 0
155 1 7.98887 12.6472 9.00127 1 1 -1
183 1 2.36344 12.3986 7.0163 2 -3 0
170 1 1.54769 9.12309 8.03293 1 2 2
70 1 10.1809 10.7625 8.33369 1 -1 0
34 2 13.939 11.8768 1.61385 -2 1 0
164 1 14.0563 13.3593 11.5556 1 -1 0
110 1 10.1526 14.1126 8.19884 -4 0 -1
1 2 11.244 1.87335 12.7455 0 2 -2
129 1 2.34389 10.441 10.1155 -2 1 -2
123 1 2.36742 12.3292 12.8349 0 -3 -1
95 1 11.7451 8.6421 8.6166 0 1 1
182 1 11.1691 9.94228 11.0922 -1 -1 1
65 1 14.5221 9.89356 14.0609 -1 -2 0
117 1 11.7175 10.9389 1.4636 -1 2 1
163 1 13.3978 2.50885 12.4123 0 2 -1
29 2 8.30784 13.489 10.9765 -2 -1 -1
178 1 9.20833 1.3665 12.4488 1 -1 -1
39 2 6.34386 9.21837 13.1791 -2 0 2
5 2 14.4246 11.7009 11.6147 1 -1 -2
136 1 13.4913 8.5408 10.7357 -3 3 -2
156 1 9.58024 11.8848 11.3978 1 0 0
135 1 9.10499 8.38259 9.79285 2 2 0
118 1 12.6939 11.5938 10.6516 0 1 -1
133 1 9.57088 10.1621 12.9933 -1 -4 0
58 2 11.8982 10.2328 9.33658 0 1 1
48 2 9.00844 9.38125 11.4642 0 0 1
160 1 11.2752 13.2975 13.3422 1 0 -1
171 1 13.1399 11.5955 12.9922 -3 1 1
2 2 11.5071 11.6947 12.1213 -1 -1 1
ITEM: TIMESTEP
40000
ITEM: NUMBER OF ATOMS
189
ITEM: BOX BOUNDS pp pp pp
1.3291527706650825e+00 1.4670847229334782e+01
1.3291527706650825e+00 1.4670847229334782e+01
1.3291527706650825e+00 1.4670847229334782e+01
ITEM: ATOMS id type x y z ix iy iz
181 1 3.36451 5.07082 5.53543 0 -1 1
55 2 1.51752 4.49578 6.66824 0 1 1
188 1 2.04327 3.63867 1.65753 0 1 2
22 2 4.47447 7.29582 5.75004 0 -1 0
105 1 7.17926 6.36947 3.80257 2 1 1
20 2 3.2352 4.80999 3.66226 0 -2 1
79 1 6.53933 3.81178 4.83933 -4 -1 -1
3 2 4.36598 6.85224 1.70614 0 -1 0
60 2 7.85102 2.08267 4.86461 1 3 1
157 1 8.87746 5.39557 9.51061 0 3 1
4 2 6.82351 4.16618 2.93084 0 2 -1
144 1 2.84621 7.72181 2.19602 0 0 2
119 1 5.02184 4.70097 2.18918 -3 0 -1
11 2 4.62416 14.0065 1.94499 1 -1 2
165 1 4.40511 6.35751 3.87653 2 0 2
106 1 1.62697 5.51719 3.25921 1 -1 1
66 1 7.69314 2.52432 2.95264 -3 -1 -1
54 2 7.29096 5.66455 5.68693 1 1 2
57 2 1.78101 8.17436 3.93752 1 0 1
71 1 5.31745 5.84036 7.07604 1 1 0
75 1 1.36758 5.9375 8.04997 -1 1 -1
163 1 3.21845 5.54778 14.3261 1 2 -1
69 1 7.7087 13.8539 1.39554 0 -2 2
37 2 1.49974 5.29316 14.6661 1 1 0
89 1 8.24467 1.54286 6.88887 0 0 -2
161 1 1.71451 3.27984 4.36061 0 1 0
25 2 14.4922 2.29668 2.69138 -1 1 -1
64 1 9.94767 4.36985 2.16324 -1 -1 0
84 1 8.03324 4.45112 7.04155 -2 1 2
104 1 12.6318 5.99606 1.82447 1 0 0
14 2 12.984 5.51558 3.85179 -1 0 0
179 1 11.3998 7.34642 5.69461 2 1 1
6 2 10.7425 2.95561 3.58156 0 1 -2
59 2 9.81564 5.46957 7.82625 0 0 2
154 1 12.6463 3.63222 3.66275 -1 1 2
41 2 9.87035 5.76183 14.1027 -2 1 -1
139 1 2.58813 7.27957 5.8337 -2 1 0
141 1 11.2894 5.49341 4.08505 0 -1 0
145 1 11.1415 1.34614 2.62437 1 1 -2
152 1 9.28342 3.30892 4.50687 1 -2 -1
42 2 9.87902 6.58799 4.31688 0 0 0