LAMMPS (22 Jul 2025 - Update 2)
# TIO2 MELT QUENCH

variable runString string cool_npt

units             real
dimension         3
atom_style        charge

boundary p p p
read_data         hot_npt.data
Reading data file ...
  orthogonal box = (1.3540535 1.3540535 1.3540535) to (14.645946 14.645946 14.645946)
  1 by 1 by 1 MPI processor grid
  reading atoms ...
  189 atoms
  reading velocities ...
  189 velocities
  read_data CPU = 0.001 seconds

pair_style buck/coul/long 10.0
pair_coeff 2 2 717654 0.154 120.997
pair_coeff 1 2 391053 0.194 290.392
pair_coeff 1 1 271719 0.234 696.941

kspace_style      ewald 1.0e-4

#fix               F1 all nve
fix               F2 all npt temp 3000.0 300.0 $(100*dt) iso 0 0 $(100*dt)
fix               F2 all npt temp 3000.0 300.0 100 iso 0 0 $(100*dt)
fix               F2 all npt temp 3000.0 300.0 100 iso 0 0 100
#fix               F3 all nvt temp 3000.0 3000.0 $(100*dt)
#fix               F4 all temp/rescale 1 10.0 10.0 5.0 1.0

#velocity          all create 800.0 97475745 dist gaussian

group Ti type 2
63 atoms in group Ti
group O type 1
126 atoms in group O

#compute TiMSD Ti msd com yes average no
#compute OMSD O msd com yes average no
#fix 1 Ti ave/time 1 1 200 c_TiMSD[*] file ${runString}.msdTi mode vector
#fix 2 O ave/time 1 1 200 c_OMSD[*] file ${runString}.msdO mode vector


neighbor          0.3 bin
neigh_modify      delay 0 every 1 check yes

thermo            100
thermo_style custom step temp pxx pyy pzz density pe

dump D1 all custom 10000 ${runString}.dump id type x y z ix iy iz
dump D1 all custom 10000 cool_npt.dump id type x y z ix iy iz


timestep          0.5
run               400000
Ewald initialization ...
  using 12-bit tables for long-range coulomb
  G vector (1/distance) = 0.28935212
  estimated absolute RMS force accuracy = 0.033353158
  estimated relative force accuracy = 0.00010044204
  KSpace vectors: actual max1d max3d = 128 4 364
                  kxmax kymax kzmax  = 4 4 4
Generated 0 of 1 mixed pair_coeff terms from geometric mixing rule
Neighbor list info ...
  update: every = 1 steps, delay = 0 steps, check = yes
  max neighbors/atom: 2000, page size: 100000
  master list distance cutoff = 10.3
  ghost atom cutoff = 10.3
  binsize = 5.15, bins = 3 3 3
  1 neighbor lists, perpetual/occasional/extra = 1 0 0
  (1) pair buck/coul/long, perpetual
      attributes: half, newton on
      pair build: half/bin/atomonly/newton
      stencil: half/bin/3d
      bin: standard
Per MPI rank memory allocation (min/avg/max) = 10.51 | 10.51 | 10.51 Mbytes
   Step          Temp           Pxx            Pyy            Pzz          Density         PotEng    
         0   3317.1132     -1228.6759      26094.101      8770.0928      3.5578333     -54258.12     
       100   3102.3869     -24540.488      56039.215     -23477.83       3.4966173     -54159.357    
       200   3072.7784      7098.7323      16879.574     -43211.892      3.4120988     -54190.326    
       300   2910.1665     -40985.446     -147.84764     -46418.782      3.3870071     -54207.492    
       400   2870.7625     -12164.681     -17678.161     -6015.4865      3.3924817     -54291.932    
       500   2536.4146     -30967.722     -6531.1922     -31748.231      3.1773289     -54161.855    
       600   2667.8501     -6528.6239     -22741.373     -16035.875      3.2715144     -54212.576    
       700   2869.5086      27136.711      54103.128      22895.148      3.3676777     -54265.833    
       800   2749.9119      1179.8858     -22515.743      6620.4911      3.3724379     -54150.995    
       900   2957.1113     -18678.563     -48582.205     -57802.232      3.3510491     -54224.744    
      1000   2943.3152      5443.7672     -44199.242     -35778.661      3.3920736     -54182.115    
      1100   2952.9287      4196.7691     -654.835        3770.1699      3.4785382     -54151.355    
      1200   2982.2557     -4233.6463      24207.63       28009.895      3.4889224     -54119.208    
      1300   2970.8824      9763.6044      34005.423     -2237.2638      3.4584146     -54068.167    
      1400   3074.9461      14350.183      9786.1041     -4721.0114      3.3746966     -54084.002    
      1500   3147.9833      38365.884     -1360.0138      55395.974      3.4359807     -54092.338    
      1600   2974.6176      17972.823      9697.2798      52029.497      3.3907091     -54003.039    
      1700   2943.0967     -4492.1512      3667.7094      3921.1013      3.377062      -54038.561    
      1800   3009.9112     -8925.92        460.19583      3152.0342      3.4698589     -54144.396    
      1900   2785.0854      33092.009     -6293.8571      3571.1004      3.5148619     -54078.926    
      2000   2734.3586      33191.255      15357.436     -512.90434      3.4477951     -54095.9      
      2100   2754.6825      2563.4004      20795.672      18277.617      3.4055091     -54121.351    
      2200   2805.2635      11451.017      26930.082      42327.301      3.4554531     -54112.191    
      2300   3292.9313     -215.24845     -2866.8233     -1828.1463      3.3782353     -54296.573    
      2400   3024.5741     -30814.345      16983.731     -8446.487       3.4704221     -54045.172    
      2500   3309.0549     -15088.038      21874.434      19006.485      3.4631641     -54128.921    
      2600   2755.484      -11375.853     -14857.809     -8074.1303      3.2809098     -53845.408    
      2700   3151.9014     -4988.3827     -29925.771     -14258.806      3.285787      -54099.181    
      2800   2971.6991      27250.199      16697.633     -3229.1917      3.4653293     -54136.922    
      2900   2858.3722      16538.352     -5250.4618      37700.875      3.397247      -54229.126    
      3000   2631.502       7839.9949      23853.906      7752.2986      3.3444104     -54146.631    
      3100   2557.3674      4233.67       -18828.593     -31116.291      3.3169528     -54070.713    
      3200   2831.9904     -19005.455     -29199.589     -20950.122      3.3572186     -54137.871    
      3300   3099.7175      14393.346      6800.1685      34541.757      3.4629314     -54198.195    
      3400   3054.32        199.64804      49198.329     -4112.0325      3.3522242     -54127.149    
      3500   3002.5657      14268.331      36265.502      8643.0227      3.3754784     -54072.449    
      3600   2957.2205      40497.554      40269.245      14040.918      3.3654083     -54027.778    
      3700   3162.6801      15323.695     -1379.9089      2580.9973      3.3253012     -54137.789    
      3800   2998.5976     -8343.0848     -18323.487     -10853.724      3.3372337     -54097.458    
      3900   3058.69       -5774.9943     -3129.8968     -8578.6616      3.4376983     -54266.315    
      4000   2858.6889      15305.451     -9793.5426     -9157.9209      3.4890609     -54330.054    
      4100   2896.1405      2262.1519     -4726.1711      10851.052      3.5202722     -54406.362    
      4200   2842.1514      7617.382      -58590.854      15266.771      3.4956109     -54359.773    
      4300   2893.093      -24404.099     -17813.293     -18130.381      3.4589226     -54359.103    
      4400   2697.663      -34371.839     -24122.468     -5337.2925      3.4067825     -54182.057    
      4500   2814.3608     -67959.392     -9348.7609     -21.818706      3.422909      -54148.292    
      4600   2952.4096     -17838.073     -18101.871     -11435.775      3.3738741     -54149.173    
      4700   2718.8899     -5501.8726      5105.2662      14685.189      3.3579291     -53978.619    
      4800   2972.797       38599.835      12029.209      44832.168      3.504771      -54078.99     
      4900   3054.9447      44401.893      35619.539     -1925.389       3.5081664     -54103.192    
      5000   3041.5509      40458.563     -5246.61        42955.066      3.5692781     -54069.285    
      5100   3163.5368     -7399.2892     -8642.1315     -2686.5506      3.4524122     -54099.142    
      5200   3146.976      -10501.952     -23630.443     -27428.103      3.4601026     -54086.672    
      5300   2984.543       751.18949      16920.231      30112.328      3.5521878     -54067.019    
      5400   3108.669       47724.008      54168.41      -4397.0943      3.5384943     -54257.241    
      5500   2844.9282      19201.536      12581.02      -8532.9856      3.4213198     -54223.499    
      5600   2916.1925      20824.432      2149.7702      9999.6155      3.4738073     -54344.032    
      5700   2920.2952      34615.078      40013.817     -19316.697      3.5249957     -54396.382    
      5800   2702.5469      21390.829      12537.602      6805.9341      3.5182214     -54326.067    
      5900   2671.7073     -12698.543     -12511.08      -21466.682      3.3481502     -54360.44     
      6000   2539.9322     -22166.877     -14655.287     -45347.549      3.2564047     -54279.746    
      6100   2807.0197     -22228.99      -26288.17      -16431.402      3.3342057     -54316.761    
      6200   2808.8849      13621.958      368.40608      25892.045      3.4345623     -54194.867    
      6300   3071.8475      26585.328      14408.093     -8510.0752      3.4427555     -54293.404    
      6400   2851.2811      17954.327      3741.9391      5309.5451      3.4378251     -54150.503    
      6500   3077.3519     -4525.7169      16391.602      1565.4462      3.4714772     -54271.961    
      6600   2955.5816     -4799.8203      404.62363      17280.66       3.4777706     -54230.12     
      6700   2880.0439     -3198.9661      19542.332      21934.613      3.5429292     -54228.931    
      6800   2988.6568     -27959.264     -3581.0796     -11766.542      3.4190468     -54342.364    
      6900   2752.5377      25801.185     -4879.6194      6946.7769      3.4809053     -54272.366    
      7000   2743.5701      9371.9863      25484.47       41761.397      3.5289355     -54315.082    
      7100   2807.8154      62.719508     -2480.4838     -5223.5884      3.4646869     -54382.182    
      7200   2803.2406      20090.706     -8583.5482      21790.635      3.4374069     -54375.429    
      7300   2827.0496     -10304.619     -30800.444      12310.078      3.3688919     -54313.062    
      7400   2995.5911     -111.9269      -46950.013      6527.0997      3.4512547     -54262.771    
      7500   3103.1772     -10492.459     -22520.876     -7513.0148      3.4495252     -54232.016    
      7600   3280.9309      1920.3275      20284.665      7864.6923      3.5671277     -54309.363    
      7700   2832.2073      32957.148      10269         -42436.437      3.4954136     -54090.106    
      7800   2793.3179     -36763.259      46783.327     -21830.15       3.556826      -54093.789    
      7900   3021.5486     -19279.081      12808.208     -13428.989      3.5400713     -54225.792    
      8000   3199.593      -39085.676     -13858.645     -25178.01       3.4959297     -54353.603    
      8100   3088.1802     -12443.58      -25468.921     -242.62161      3.5317615     -54374.139    
      8200   2761.2792     -18039.064      12873.141     -34652.974      3.4653964     -54312.937    
      8300   2715.5506     -8136.5178     -15007.074     -26174.967      3.5356201     -54376.095    
      8400   2660.0281     -31212.588      12630.263     -14236.929      3.524632      -54383.688    
      8500   2608.4902     -24471.397     -19956.269     -6291.3974      3.4764936     -54334.008    
      8600   3134.2847      29574.935     -8423.5178     -18412.376      3.5482899     -54532.491    
      8700   2657.1558      34312.783      3357.0367      20112.764      3.5705725     -54180.952    
      8800   2987.4109     -7972.1037      28810.755      21651.978      3.5451852     -54293.757    
      8900   3057.187      -22468.273      4424.2107      553.84192      3.425223      -54304.011    
      9000   2801.4194     -21271.865      31153.786     -15292.726      3.5081371     -54149.929    
      9100   2957.1405     -36879.456      9388.4143     -10850.008      3.3609113     -54217.394    
      9200   3106.5701     -28127.927     -15896.203      32063.795      3.5234025     -54303.388    
      9300   2876.9815     -8287.3098     -2247.7579      36837.337      3.5383192     -54232.186    
      9400   3083.3594     -13176.458     -2295.0837     -26277.772      3.4448166     -54420.4      
      9500   3049.5556      14744.075      18691.611      2955.4772      3.5299161     -54533.554    
      9600   3051.0964      5334.8587      16137.071      26550.961      3.5427962     -54637.859    
      9700   2663.3616      17431.215      20311.606      27753.719      3.5548359     -54465.205    
      9800   2734.847      -20921.182     -24735.067     -16688.528      3.4246582     -54492.532    
      9900   2845.3543     -18783.501     -18625.513      16659.115      3.4986365     -54535.351    
     10000   2605.0275     -12469.495     -18414.873      22671.952      3.4996532     -54350.681    
     10100   2867.355      -14237.729     -18617.976      5595.5179      3.5154534     -54438.39     
     10200   2844.6723      17712.176     -24709.523      31600.735      3.5493484     -54380.319    
     10300   2927.3759      51372.98      -5832.5816      31736          3.5707923     -54394.671    
     10400   2890.9252      19190.667     -11331.21       11438.277      3.4893315     -54353.301    
     10500   3199.244       5533.1798     -16499.2       -24312.703      3.5118928     -54520.804    
     10600   2812.0896     -8188.662       14683.318     -1382.2905      3.5560814     -54304.367    
     10700   2972.5238     -8731.4191      42807.957      6678.8183      3.5190808     -54356.52     
     10800   3200.4358      19639.89      -16793.277      5531.1087      3.4535143     -54422.766    
     10900   3267.3793      56237.209      53390.924      66282.195      3.5916215     -54341.44     
     11000   3045.692       17571.303      14676.375      13571.666      3.4924335     -54101.495    
     11100   3017.3328      22339.431      3284.0316     -1334.0238      3.3967848     -54029.497    
     11200   3358.4155      17527.516     -35375.416      5634.8939      3.398345      -54234.224    
     11300   2939.2165     -8253.9508      7749.4632      9022.7812      3.3327057     -54081.693    
     11400   2881.2401     -2244.8283     -1507.4602      3319.3435      3.321928      -54155.141    
     11500   3076.1872     -7714.9668     -7159.5259      19216.676      3.4526181     -54341.101    
     11600   2803.7692      4813.897       37579.129     -12334.291      3.4911258     -54243.239    
     11700   2922.5874      8950.6209      29336.753      44509.307      3.6997204     -54320.262    
     11800   3047.8584      12742.691      10540.08      -3092.5672      3.5867809     -54413.055    
     11900   3013.0343     -1302.2089      1326.1939      24961.299      3.6836294     -54433.265    
     12000   2718.5474     -21558.948      16771.268     -36253.041      3.6254906     -54340.436    
     12100   2962.3614     -17847.077     -27837.688     -47426.037      3.5900575     -54514.009    
     12200   2773.8609     -20112.011     -35040.348     -24685.537      3.5658286     -54444.953    
     12300   2845.4805     -4839.9612      8723.7778     -19095.156      3.5926903     -54488.335    
     12400   2661.6551      10269.72       29928.114      17.682618      3.566378      -54324.468    
     12500   2999.3392      22289.802      2265.9282     -17169.919      3.5543279     -54344.866    
     12600   2921.8634      15792.098     -20122.2        14.626989      3.464017      -54192.093    
     12700   3095.3038     -3841.7049      14083.555      18078.098      3.3966461     -54224.892    
     12800   3191.5378      12384.592      9730.7394      21617.918      3.4169484     -54227.519    
     12900   2921.9707     -281.23611      29382.337      23426.871      3.399082      -54063.322    
     13000   2747.0487     -5515.2082      25336.854     -4194.8738      3.3235386     -54003.757    
     13100   2873.9549     -34565.471     -7147.9607     -28182.787      3.3352673     -54152.092    
     13200   2852.4986     -20752.375     -15073.952     -6727.7743      3.405601      -54241.155    
     13300   2830.7551      28486.919      5510.6551     -6543.2169      3.4665989     -54331.375    
     13400   2740.5903     -384.63769     -3147.8133     -27785.013      3.4407671     -54326.28     
     13500   2801.3872      2277.0277      9286.5542     -2390.5589      3.5020515     -54348.321    
     13600   2778.2785     -17794.716      3989.5486     -17066.295      3.559056      -54318.046    
     13700   2641.0119      18605.931     -18049.719     -31381.294      3.4761459     -54206.091    
     13800   2794.9396      26302.208     -11374.038      780.12649      3.5013457     -54284.286    
     13900   2736.4392      29359.482      8297.2996      12937.997      3.5709878     -54232.046    
     14000   3032.9        -2037.842      -27535.986      2084.3195      3.42006       -54357.14     
     14100   2926.0168      33566.719     -9091.1041      11114.123      3.5351295     -54268.022    
     14200   3112.6218      5278.3404     -3118.9272     -6790.9581      3.5872127     -54345.164    
     14300   2902.5978     -10463.164     -53483.006     -22185.628      3.4434746     -54230.8      
     14400   2936.6065      5973.9203      37450.156     -8247.4423      3.4382921     -54258.978    
     14500   2879.5772      44635.612     -13869.917      15788.552      3.5271227     -54260.84     
     14600   2912.1534     -30206.365     -16548.548     -9325.949       3.394873      -54299.918    
     14700   2965.6675     -22625.264     -22212.305     -38415.664      3.420871      -54335.701    
     14800   2866.4345      6965.45       -32846.818     -22317.483      3.5092651     -54285.396    
     14900   2716.0052      117.89245     -11284.847     -17115.958      3.4474353     -54206.537    
     15000   2669.4229      3202.689      -15123.203     -23158.212      3.4401338     -54163.119    
     15100   2806.651      -42419.955      24083.752     -11755.408      3.3643769     -54170.254    
     15200   2937.2298      21131.368      24971.749      2052.1625      3.43636       -54145.898    
     15300   2846.1551      20122.922      15432.773      16177.724      3.4062814     -54012.319    
     15400   3078.2128      16481.008     -10378.967     -16125.06       3.426965      -54089.579    
     15500   2999.3665      13725.733     -16162.89      -17818.906      3.4858636     -54058.58     
     15600   3070.4377     -26905.003     -14753.444     -79240.639      3.3850276     -54169.814    
     15700   2838.2621     -9345.9694     -17068.332      9747.2633      3.4497233     -54149.191    
     15800   2940.0719      15844.44       9309.6883      11477.941      3.5423911     -54305.979    
     15900   2946.9992     -8977.6113      12834.163     -10268.355      3.4969598     -54329.101    
     16000   3119.8134      30439.296      15364.167     -12261.921      3.4965977     -54440.879    
     16100   2953.1134     -503.48271      15971.509      10633.644      3.4778039     -54382.602    
     16200   2868.042       1620.4942     -13258.516     -1449.2557      3.4418885     -54338.035    
     16300   2952.807      -17830.644      2590.7907     -35043.564      3.4332426     -54359.714    
     16400   2952.8402     -25238.019     -30227.786     -27592.152      3.4393625     -54321.233    
     16500   3111.1116      9130.6495     -15541.143      2419.4383      3.4537416     -54351.151    
     16600   3004.9048      8676.3661      6673.8904      6621.0335      3.4441069     -54240.265    
     16700   2928.7396     -525.99548     -1739.9099     -24796.256      3.4237211     -54142.638    
     16800   2957.8436     -363.7113      -7425.032      -24543.669      3.2937775     -54084.881    
     16900   3298.1552      12567.9       -5961.8794     -2333.1941      3.3566375     -54188.813    
     17000   3034.0713     -18740.544      18047.821      16879.773      3.3729865     -54029.147    
     17100   3068.2659      22966.299      16819.827     -10778.846      3.4855667     -54129.227    
     17200   2744.0374      2988.2434     -12570.152     -1712.0684      3.379121      -54122.69     
     17300   2789.6766     -22200.494     -2818.3406      3591.6014      3.4395154     -54246.159    
     17400   2920.9942      9418.6752     -1420.4338     -15819.726      3.4197589     -54347.136    
     17500   3003.2493     -6012.4827      556.7914      -16132.886      3.5021902     -54415.712    
     17600   2768.4304      10769.789      7137.1132     -14570.103      3.4527391     -54318.857    
     17700   2751.1762      2931.8246     -5852.7684      7019.3203      3.3703721     -54325.614    
     17800   2757.5497     -1577.993      -821.38989     -19378.924      3.3679991     -54295.587    
     17900   2852.0935      10051.487      23946.175      219.05787      3.4404426     -54264.063    
     18000   3136.8484      32334.551      5134.385      -7147.5241      3.47956       -54313.445    
     18100   3083.7358     -24989.263     -23679.747     -15751.747      3.4091157     -54194.265    
     18200   3215.2222      45445.509     -47365.333     -29161.738      3.424627      -54250.111    
     18300   3021.8281      15715.867      31334.899      35048.901      3.4547826     -54159.096    
     18400   3039.2613      37828.47       38275.255      27490.881      3.5586156     -54228.074    
     18500   2987.3729      19009.953      16095.182     -21227.763      3.5149226     -54255.646    
     18600   2808.103      -4543.0733      11963.505     -19324.196      3.4181961     -54226.008    
     18700   2980.6307      12349.987     -5196.0185     -43280.322      3.4791292     -54334.936    
     18800   2934.8171      18493.227      24777.333      10364.538      3.4568358     -54329.617    
     18900   2983.0472      22492.607     -350.56214      20412.23       3.5357305     -54374.182    
     19000   3035.1542      6358.2493     -22648.372     -11393.186      3.480068      -54409.024    
     19100   2971.5946     -5676.3532     -17917.096      15874.08       3.5976014     -54391.911    
     19200   2885.6298     -8428.8988     -6415.1674     -30891.16       3.4996912     -54392.057    
     19300   2599.1073     -7223.4877     -11393.7        16680.365      3.56372       -54297.498    
     19400   2750.3707      37809.175      21057.154     -5291.8856      3.5620412     -54438.482    
     19500   3039.2335      32200.973      28506.362      52349.36       3.6120239     -54642.799    
     19600   2643.379       13789.997     -11668.309      11736.282      3.5221931     -54485.387    
     19700   2849.5882     -25180.834     -16528.15      -4906.3237      3.4776639     -54625.696    
     19800   2707.9354     -58007.653     -9420.5638     -9663.2132      3.4542112     -54531.844    
     19900   2789.9962     -32006.381     -24935.308     -23797.411      3.4934137     -54499.19     
     20000   2683.5511      2241.2152     -15486.285      15068.187      3.5377882     -54312.41     
     20100   3039.7819     -46476.141     -14363.794     -17907.588      3.5704496     -54410.551    
     20200   2842.7875      5259.9104     -763.59307      12111.372      3.5570974     -54254.52     
     20300   3218.6967     -404.76185      26047.882      9501.548       3.6191532     -54476.891    
     20400   2750.5966     -34220.011      13647.552     -8983.7271      3.5181219     -54289.009    
     20500   2656.6475     -43300.058      4935.4007     -15880.31       3.4358469     -54303.288    
     20600   2577.6412     -25627.889     -13865.856     -17017.139      3.3284746     -54303.744    
     20700   2813.7068     -24453.99      -40672.619     -29672.999      3.3251147     -54441.62     
     20800   2841.0043     -9077.662      -29929.474      12546.839      3.4923767     -54437.972    
     20900   2801.7482      12750.794     -33192.859      8574.5373      3.5322692     -54392.026    
     21000   2945.157       26735.363     -5388.4616      39179.33       3.6364872     -54445.142    
     21100   3034.0938      32628.984     -3683.6468      18464.219      3.579807      -54490.988    
     21200   3061.3989     -2011.3777      26913.121      23637.566      3.5671372     -54513.429    
     21300   2637.1461      30390.109      22701.562      26613.154      3.5794123     -54316.991    
     21400   2783.9932      24389.589      16165.752      52367.881      3.6362025     -54399.843    
     21500   2922.4757     -29714.961     -4182.531      -4930.7149      3.4594124     -54461.207    
     21600   2603.7468     -6779.7776     -8038.0783      3883.2369      3.4473305     -54251.991    
     21700   2947.6586     -2810.8287      27324.533     -27822.128      3.432493      -54366.766    
     21800   3043.4411      12658.395      2942.2798     -19093.977      3.3882762     -54293.505    
     21900   3183.183      -909.33295      13530.906      2760.8148      3.3863847     -54252.978    
     22000   3244.3505      12236.987     -30261.509     -10303.46       3.5030324     -54266.22     
     22100   3179.3804      17218.041      14990.521     -12081.542      3.4350769     -54313.317    
     22200   2934.6082      39106.599      14354.598     -2327.0822      3.4296807     -54260.398    
     22300   2727.3378     -8755.3239     -286.8463       10750.224      3.3133499     -54188.995    
     22400   2966.1792      33536.346      24569.828      13484.053      3.4105058     -54334.164    
     22500   2759.6647      23752.103     -39255.076     -16926.454      3.3585123     -54210.524    
     22600   2784.521      -65503.978     -25224.392     -17383.667      3.4313761     -54219.378    
     22700   2803.8937     -13572.186     -25723.312     -5516.3078      3.3819809     -54215.094    
     22800   2606.6919     -19227.506     -20046.606     -3790.4394      3.4707984     -54063.743    
     22900   2936.9025     -11297.721     -9375.5309      9724.8429      3.4744446     -54184.802    
     23000   3089.0451      750.86957      7452.4492     -19113.362      3.4191061     -54173.062    
     23100   3100.2556     -29686.016      966.39925     -1369.4946      3.374617      -54132.347    
     23200   2976.7725     -4241.0021      32811.553     -29002.963      3.3922007     -54056.929    
     23300   3045.2682      47266.498      31986.135      13272.588      3.4406479     -54161.322    
     23400   3050.1476     -7853.5073      10940.339      21376.67       3.4425682     -54334.908    
     23500   2802.9244      2283.0292      2569.8535      2333.1297      3.4814372     -54320.324    
     23600   2930.456      -22137.512      17716.709     -13410.833      3.4247993     -54442.949    
     23700   2838.5785      10752.402     -4556.1667      36501.783      3.5199538     -54418.523    
     23800   2796.6266     -13544.443     -24228.078      40061.018      3.4957765     -54413.1      
     23900   2905.6065      9780.3816     -15289.344      17773.194      3.549512      -54462.123    
     24000   2758.8403     -10107.623     -10854.131     -5987.389       3.40877       -54382.482    
     24100   2887.9949      43265.993     -9708.6033      21186.203      3.5072623     -54438.533    
     24200   3071.142       36562.214      16561.612      27344.118      3.54622       -54463.617    
     24300   2868.7645      1904.6074     -23636.301      25790.054      3.4039691     -54276.485    
     24400   3014.5733      706.60294     -2940.9276      11403.913      3.3866705     -54310.245    
     24500   3093.2945     -3451.5083      27621.074     -8578.1467      3.4499791     -54327.9      
     24600   2810.6414     -13548.856      9045.3241      24172.339      3.4955902     -54193.718    
     24700   2891.8222     -1761.4208     -15716.601     -2331.5176      3.4839707     -54321.35     
     24800   2980.4547      13451.262      17304.793     -4867.0712      3.5340861     -54503.626    
     24900   2586.7827      23824.918      24841.46       31800.46       3.5589891     -54387.549    
     25000   2756.3611     -22709.831     -10190.098      2412.6296      3.3821302     -54506.69     
     25100   2760.6669     -23609.212     -10029.782      1937.5282      3.3428829     -54495.12     
     25200   2679.1696      2455.9923      20608.874      22343.181      3.4836492     -54413.259    
     25300   2946.9138     -19659.307      3479.1767     -24161.247      3.4793016     -54485.175    
     25400   2727.6604     -47570.294     -26408.623     -7666.4725      3.3456163     -54281.333    
     25500   2764.5466     -20852.391     -28681.773      20311.267      3.4597683     -54234.48     
     25600   2865.9588     -22139.865     -21103.015      25266.168      3.3979917     -54237.077    
     25700   2868.0508     -20148.229     -25305.88       9891.9933      3.3549402     -54228.256    
     25800   2836.2994      1698.8781     -21902.279      37230.991      3.4025141     -54221.081    
     25900   2885.8281     -19392.552      5079.8987      32063.415      3.4073359     -54250.846    
     26000   2939.3266      11915.528      49887.76       14428.474      3.4876377     -54287.152    
     26100   2852.4043     -14663.877      42380.848      23142.343      3.5160109     -54274.148    
     26200   2875.1108     -14391.286      18378.611      40031.149      3.4960111     -54357.147    
     26300   2762.4975     -23803.36       21238.429     -6772.4727      3.4357036     -54391.776    
     26400   2683.0173     -11698.517     -15213.672     -22311.797      3.4573691     -54426.558    
     26500   2635.7978     -15347.759     -28224.637     -22965.49       3.4515775     -54431.543    
     26600   2890.0782     -33695.71      -39122.908     -21989.176      3.4448938     -54565.006    
     26700   2756.0279     -9018.0599     -19926.325     -14258.278      3.4783846     -54420.787    
     26800   2936.9029     -8388.497       25051.196     -8197.3083      3.5359862     -54372.298    
     26900   3084.0969      10090.388     -30340.396     -5333.709       3.4180713     -54353.768    
     27000   2844.0444      28385.25       16126.563      17746.226      3.4804684     -54169.567    
     27100   3010.5186      18445.121      21066.204      27739.372      3.5322883     -54212.271    
     27200   2922.648       17487.172      20898.051      53519.443      3.5053555     -54158.854    
     27300   2905.2954      23123.815      11993.539      55159.548      3.5584242     -54172.151    
     27400   2855.0977      1923.5918      23210.16       4896.3216      3.5420132     -54223.658    
     27500   2706.0349      2007.3166     -26.468855      36396.256      3.5205173     -54274.415    
     27600   2593.1216     -5666.0056      21542.305      4332.3944      3.5219676     -54342.734    
     27700   2588.9591     -7505.1801     -26115.373     -6363.8808      3.4735514     -54351.37     
     27800   2800.9568     -20345.751     -38045.555     -6820.97        3.439393      -54430.113    
     27900   2812.1494      5570.4759     -2769.3318     -34330.98       3.4896354     -54397.256    
     28000   2791.0429      4711.6558     -29545.554      21158.633      3.4241655     -54366.95     
     28100   2849.7754     -2824.6732      13739.414      41819.503      3.4838164     -54380.68     
     28200   2978.0141      1449.5504     -27392.61       2959.047       3.4157359     -54417.296    
     28300   2877.9089     -23460.957     -41987.646     -7650.9275      3.3450331     -54286.045    
     28400   2811.5678      12075.245      10055.513     -12988.685      3.4485245     -54130.609    
     28500   3096.4916     -6153.6496     -5132.0782      21609.94       3.3682907     -54217.322    
     28600   2833.1417      28143.293      16678.951      37801.489      3.3660729     -54034.743    
     28700   3015.101       6085.6283      32621.533      19072.716      3.4053688     -54129.781    
     28800   2984.8993     -8063.691       25941.164      11205.672      3.4148457     -54169.294    
     28900   2644.2166      3048.2799      24623.045      4296.3421      3.4384734     -54134.04     
     29000   2573.7617      14576.412      10026.479      28269.919      3.4736321     -54210.454    
     29100   2709.6067      40590.741      9837.8069      27186.293      3.4265193     -54308.711    
     29200   2743.6276      21368.044     -3667.9186      18498.136      3.3780228     -54316.5      
     29300   2857.6013      38253.654      3296.8279      36962.899      3.5434803     -54350.458    
     29400   3042.3983      17174.875     -850.34493      16567.141      3.5455773     -54451.534    
     29500   2864.0244      578.08871      6969.3046      7165.4933      3.5079897     -54398.822    
     29600   2652.215       21473.002     -31945.015     -6318.7893      3.4270596     -54361.332    
     29700   2855.1365     -3402.3479      19629.691     -10068.696      3.5522989     -54558.517    
     29800   2530.2837      17758.052      16308.79       23335.83       3.5312634     -54470.79     
     29900   2622.4234      3661.2381      7120.0686      578.06         3.5560954     -54556.482    
     30000   2439.6292     -9157.3489     -8906.1859     -2589.5434      3.5914691     -54428.756    
     30100   2699.947      -11045.218     -28165.443     -26711.643      3.5622557     -54484.249    
     30200   2792.007      -33193.91      -44651.879     -23401.275      3.4951723     -54381.467    
     30300   2784.4882     -19554.295     -11821.751     -1487.8813      3.5235956     -54293.528    
     30400   2800.1789     -8568.895       6541.1841      1945.2033      3.5491866     -54284.959    
     30500   2780.7398      1705.1289     -8902.8987     -4538.9203      3.5036303     -54304.764    
     30600   2808.9708     -7381.5409     -2605.9234     -8263.0562      3.4876104     -54321.509    
     30700   2791.6037      3062.748      -230.50624     -3603.0843      3.4369979     -54342.541    
     30800   2912.3053      3413.1346      17464.275     -18820.109      3.4211855     -54433.077    
     30900   2839.8108     -2864.9053      6976.3609     -14527.25       3.4230199     -54414.871    
     31000   2574.5558     -11934.789      20178.1        4596.1649      3.4477687     -54306.749    
     31100   2778.7965     -19967.569      22414.349     -14693.353      3.4695177     -54473.438    
     31200   2590.5972      9034.7831     -23174.326      7541.9905      3.4701549     -54424.117    
     31300   2659.5456      13207.087      1380.6771      3171.1215      3.5170029     -54491.031    
     31400   2644.9888      8818.9326      24166.542     -21318.371      3.4696968     -54479.127    
     31500   2665.0353     -13340.212      12951.635     -11429.699      3.3577543     -54461.611    
     31600   2724.7736      8849.7467      5309.0836     -7088.7603      3.4103833     -54395.203    
     31700   2845.7622     -22849.788      6751.643       441.55123      3.374832      -54326.73     
     31800   3002.0426     -752.52169     -34241.88       6681.0767      3.298004      -54353.01     
     31900   2903.4426     -4073.9752      23382.604     -24295.739      3.3750499     -54296.175    
     32000   2878.9193      18978.118     -19398.329      9747.4695      3.4084032     -54286.576    
     32100   3096.3844      47265.894     -8415.3979      7966.0331      3.4135412     -54454.071    
     32200   2767.4366      7105.3515      11014.794     -5544.2369      3.3713184     -54354.375    
     32300   2723.7229      21618.167     -16073.335     -14327.993      3.3846056     -54427.687    
     32400   2749.3286      17363.052      2198.8197      8976.1166      3.4868901     -54508.661    
     32500   2550.6764      1939.5586     -667.48009     -1481.2754      3.4841354     -54420.876    
     32600   2559.0809     -17045.592     -39567.468     -43137.042      3.4159244     -54414.67     
     32700   2954.3834      4268.5671     -6665.3585     -36286.21       3.5969997     -54620.868    
     32800   2816.6167     -12943.837      3262.1949      5968.8324      3.63326       -54553.557    
     32900   2795.2715     -36906.064     -16065.91      -23249.657      3.5698733     -54547.482    
     33000   2944.1728     -38962.825     -30737.431     -8317.6459      3.58066       -54627.538    
     33100   2698.4129     -16668.448     -3554.0547     -14716.707      3.6620053     -54493.652    
     33200   2786.6943     -13089.488     -8100.0331      41140.48       3.6136924     -54529.451    
     33300   2821.9206      533.45478     -16698.916     -11488.52       3.5685424     -54514.171    
     33400   2579.2356     -12043.68      -24976.811      7395.2767      3.5445719     -54315.206    
     33500   2803.6868     -12891.867     -10209.933     -40074.877      3.6229742     -54361.005    
     33600   3039.1273     -23985.217      27586.243     -36835.031      3.5769935     -54407.804    
     33700   2929.4535      7866.5646     -27595.271     -28671.93       3.5315899     -54324.838    
     33800   2579.415       5251.1167     -35559.516     -26994.234      3.3774366     -54143.494    
     33900   2787.1733      19019.346     -558.2161       2797.3219      3.46922       -54312.467    
     34000   2516.251      -28364.263      20263.985     -10323.188      3.4523662     -54280.535    
     34100   2840.7399      22592.198     -9308.1232     -4958.4921      3.5746212     -54551.928    
     34200   2678.0449      14022.393     -10892.357     -3085.5512      3.4733449     -54540        
     34300   2603.262       14716.952     -5966.3401     -11344.282      3.5470075     -54520.213    
     34400   2540.7182      3206.354       31994.721     -6924.2931      3.5447648     -54454.668    
     34500   2656.5848      23473.716      9538.6856      20126.509      3.5129966     -54454.656    
     34600   2997.127      -841.95191      18653.441      12255.259      3.5493819     -54523.923    
     34700   2965.1183      15631.26       56090.81       51483.343      3.6170045     -54428.202    
     34800   3101.9604      11094.933      9477.339       42007.543      3.6253587     -54479.932    
     34900   2930.1395      16155.535      33097.112      21708.476      3.6381775     -54401.559    
     35000   2959.7005     -2916.7667      49270.733      34702.971      3.6627583     -54460.288    
     35100   2689.0771      6753.9104     -14198.235      25836.765      3.6893432     -54390.5      
     35200   2661.0417      3921.3286      37390.026      2928.7964      3.6919175     -54466.966    
     35300   2555.9548     -20782.577     -9654.3453     -15549.024      3.5272613     -54433.008    
     35400   2645.8955     -30194.262      24052.259      736.05387      3.6229168     -54487.792    
     35500   2866.929      -26788.42       8357.9578     -22978.7        3.6071274     -54584.412    
     35600   2606.1726     -13344.957      7567.883       4617.0922      3.5781692     -54406.057    
     35700   2901.2151      8823.3557     -2873.7149     -14355.199      3.6011657     -54514.49     
     35800   2533.9856     -27333.044      12775.897      19608.322      3.5582088     -54260.071    
     35900   2905.9778      29738.86       29976.153     -18086.063      3.531394      -54399.953    
     36000   2843.5664      45590.529      3227.7088      25702.982      3.620115      -54224.173    
     36100   3363.4678     -3794.0845     -7136.6411      10557.505      3.5135992     -54377.463    
     36200   2784.9147      8737.973      -21256.072     -25316.719      3.4702111     -54052.965    
     36300   2601.8315     -96.481924     -2488.2219      23428.773      3.5076209     -53992.327    
     36400   2693.4454     -16227.731      7111.8522     -17023.729      3.452265      -54153.901    
     36500   2963.6178     -807.61635     -27455.504     -29720.011      3.398644      -54411.199    
     36600   2858.7572      15523.588      30698.023      11471.058      3.5507079     -54409.364    
     36700   2792.7055     -21442.377     -3259.4994     -39670.99       3.5138578     -54413.109    
     36800   2710.3265     -25718.995     -20923.606     -11134.104      3.5338729     -54407.368    
     36900   2648.9586     -22335.422     -17110.493     -29372.213      3.4484713     -54399.511    
     37000   2660.452      -31427.63      -20925.267     -25189.039      3.4268198     -54398.776    
     37100   2831.7726     -20765.705     -25851.441     -12629.94       3.43306       -54466.428    
     37200   2910.2382     -37317.64       20978.887     -8859.6504      3.4562023     -54441.792    
     37300   2937.8672     -30166.688      18065.951      19231.398      3.4794581     -54327.413    
     37400   2848.2724     -23435.448     -12164.442     -28487          3.3769127     -54187.226    
     37500   3034.0347     -53136.457      1212.6996      1329.1004      3.4449319     -54283.425    
     37600   2910.467      -24882.314     -6668.1939      303.23945      3.3683347     -54268.439    
     37700   2939.2551     -23500.412     -21225.28       14578.078      3.4351907     -54392.332    
     37800   2611.8222      3233.1995      28093.375      385.48348      3.570443      -54308.252    
     37900   2713.1374     -17357.731      12907.004      19111.738      3.5368574     -54399.929    
     38000   2919.7377     -8699.8114      17162.03       17240.245      3.5587906     -54532.317    
     38100   3039.2066     -16789.416      10835.243      16668.014      3.5527623     -54614.823    
     38200   2668.6758     -15448.867      35850.63       13148.505      3.6043423     -54421.903    
     38300   2559.9936      20382.996      15789.847      1899.3162      3.6119829     -54370.473    
     38400   2855.6946     -14472.296     -4933.6871     -38232.432      3.475141      -54535.058    
     38500   2733.7432     -2053.7156      938.41985     -7158.5197      3.495859      -54483.775    
     38600   2752.7095     -636.87684     -7998.5971     -8114.3927      3.581653      -54516.474    
     38700   2750.7744      9466.3825     -12256.053     -5535.0508      3.6009653     -54531.677    
     38800   2709.9996     -7416.4847     -10856.44      -1668.3811      3.5624266     -54504.012    
     38900   2616.6474      24671.403     -504.14351      8041.9212      3.6252768     -54423.871    
     39000   2961.958      -2347.8535      1962.1384      19408.171      3.5844206     -54555.226    
     39100   2686.5359      21678.219      26307.371     -5955.6059      3.4946966     -54360.588    
     39200   2844.9885     -16237.355      41580.257      30724.241      3.5216241     -54404.956    
     39300   2782.177       21193.625     -4303.1739     -2846.6097      3.5565245     -54389.639    
     39400   2853.4194     -43196.404     -13228.185      6319.2743      3.4650528     -54479.596    
     39500   2650.4738     -32575.462     -9479.4283     -23344.589      3.4622673     -54450.859    
     39600   2708.6486     -33924.81      -12296.889     -3832.416       3.4149302     -54552.534    
     39700   2472.6955      15507.582      39728.285      20846.062      3.5099707     -54454.089    
     39800   2613.7346      15688.839      34765.602      7725.6301      3.5829677     -54544.668    
     39900   2629.5219     -8969.2144     -5030.5878      9688.5837      3.5069338     -54485.272    
     40000   2633.5612     -11533.786     -14487.074      8.4665137      3.5181401     -54342.629    
     40100   2494.0873     -18620.309     -17169.597      9702.7785      3.450522      -54147.274    
     40200   2900.6538     -6526.4829      19765.464     -15392.621      3.433611      -54338.702    
     40300   2662.8079     -129.72046      12029.794     -41178.3        3.4502103     -54230.449    
     40400   2777.7571     -31775.759     -4164.7389     -17290.412      3.5035187     -54346.846    
     40500   2650.6629     -34608.264     -19185.888     -39440.21       3.4658481     -54341.665    
     40600   2783.0371     -25808.16       479.07765      6326.5171      3.557458      -54483.939    
     40700   2460.0624     -46023.124      27300.544     -4996.7675      3.5423669     -54389.147    
     40800   2727.324      -15242.015      14777.461      4286.4191      3.5698804     -54571.332    
     40900   2859.2848      17607.027      13367.765     -950.95976      3.6465842     -54641.486    
     41000   2701.6389      8153.8752      21531.067      8882.2473      3.6041564     -54538.099    
     41100   2635.6401      1403.2868      15229.224      7920.7971      3.5355661     -54476.015    
     41200   2829.3222      16316.356      57000.722      11305.842      3.6191946     -54560.396    
     41300   3112.7825      4607.1074      6387.9258     -6653.3429      3.6687467     -54718.492    
     41400   2725.7546      34802.297      26216.548      49327.526      3.7233648     -54529.792    
     41500   2807.3539      33954.835      14844.752      13366.362      3.6783402     -54606.005    
     41600   2701.4175      5894.2395      29520.028     -4917.5133      3.5914274     -54611.072    
     41700   2519.7234      6634.6175     -37963.801     -11506.115      3.5028587     -54532.99     
     41800   2659.9349     -24899.834     -49184.547      32741.018      3.5563465     -54588.203    
     41900   2828.7937      10770.957     -31728.621      560.24708      3.5487486     -54557.452    
     42000   2820.0383      61591.498      13509.575      12511.67       3.561854      -54441.678    
     42100   2769.9191      23091.191      366.03307      13572.483      3.560545      -54374.538    
     42200   2925.9257      6576.3619      3389.1005     -27621.584      3.4673085     -54454.57     
     42300   2728.2962     -9857.9172     -11853.417      14419.451      3.5241448     -54386.043    
     42400   2724.9682      18890.064      14954.742      34647.753      3.4646226     -54464.22     
     42500   2766.7311     -9936.4047     -14544.721      25448.803      3.5540851     -54584.688    
     42600   2917.9373      2587.2693     -20231.662     -372.18367      3.5932143     -54752.227    
     42700   2614.3218     -19027.59      -32299.316     -2638.0775      3.5200195     -54649.503    
     42800   2481.3153     -21144.135      14493.45      -18123.145      3.4713928     -54599.006    
     42900   2484.1966      13004.05       8496.0947     -16824.557      3.5021529     -54580.318    
     43000   2546.4093     -13784.071      38638.493     -22300.59       3.4543816     -54556.404    
     43100   2808.2128      141.7897       55389.038     -23238.763      3.619538      -54626.757    
     43200   2640.151      -8543.0867     -2199.375      -24829.051      3.5022716     -54497.502    
     43300   2796.2493      8449.0993      4271.0544     -25349.103      3.5281018     -54554.271    
     43400   2914.7786      20425.574     -9279.1515      15774.22       3.5670345     -54598.761    
     43500   2791.9608      2127.9845     -10129.394      3750.2561      3.5727472     -54526.446    
     43600   2756.0427      268.20302     -12246.694     -31815.666      3.4746711     -54523.378    
     43700   2665.5129      14836.34       7887.6911      10260.916      3.6121988     -54563.509    
     43800   2750.868      -1131.3083     -23083.665     -17876.65       3.5559638     -54793.391    
     43900   2256.3551     -3343.5662     -12142.838     -2772.5131      3.5366988     -54591.537    
     44000   2543.4677     -19729.889      5988.9709     -17542.933      3.5178978     -54732.923    
     44100   2515.9043      9225.8645      28789.919     -11592.108      3.6025979     -54645.736    
     44200   2354.3221     -23779.659      28381.235      21982.796      3.5336624     -54467.78     
     44300   2750.7255      3238.5767      10926.678     -9717.3113      3.5740073     -54600.33     
     44400   2818.3105      25193.297      45045.028      3052.763       3.6388717     -54569.292    
     44500   2996.4048      6399.737       43424.648      5375.3169      3.6783491     -54622.929    
     44600   2801.6794     -13253.196      17743.665     -16575.023      3.49688       -54505.787    
     44700   2755.2573     -10030.782      7485.4785     -14583.057      3.5815641     -54516.819    
     44800   2613.0996     -20290.249     -1069.0516     -417.06942      3.5795086     -54518.281    
     44900   2692.1937     -45494.834      10038.525     -15330.735      3.6270393     -54666.263    
     45000   2727.03       -27866.069     -16926.63      -25351.355      3.6114233     -54749.347    
     45100   2502.0844      13386.572      5560.6323     -10373.672      3.6580054     -54642.31     
     45200   2623.6837     -7158.8052      9251.9337     -6399.4435      3.6650864     -54711.115    
     45300   2623.3293      5024.2659     -18422.73      -30111.632      3.5579637     -54702.267    
     45400   2688.9984     -13990.314      18752.178      5552.0479      3.6317326     -54724.329    
     45500   2637.3782      677.22278     -6272.8172     -31044.942      3.57222       -54665.01     
     45600   2530.9013      1938.2752      48311.422      4118.552       3.6614512     -54548.814    
     45700   2890.1412      20133.651      61939.508      31089.039      3.7622671     -54638.743    
     45800   3022.1764     -11033.428      42281.715      39060.014      3.6857952     -54604.117    
     45900   2932.6603      3329.7222      67895.246      29274.616      3.7677397     -54522.086    
     46000   2887.5934     -2357.9652      6193.5161      47052.106      3.6318986     -54521.092    
     46100   2756.0361      36962.478     -13507.818     -3330.4341      3.5487992     -54493.395    
     46200   2549.9701      3368.5523     -397.99069      18191.453      3.5900298     -54425.627    
     46300   2748.9856     -12196.386      21290.2        35537.701      3.6768788     -54549.819    
     46400   2733.8643     -26019.712     -16356.727     -10171.661      3.5309904     -54554.421    
     46500   2620.252       26578.767     -3771.6573      20635.848      3.6046709     -54491.697    
     46600   2537.4685     -8266.6986      4136.0929      1567.7433      3.5045249     -54446.51     
     46700   2747.9041     -12205.221      1001.1752      18626.988      3.5363596     -54546.381    
     46800   2857.296       4886.7247      656.2174      -11112.469      3.5277881     -54592.15     
     46900   2583.228      -17462.405      30155.274      6583.0563      3.6034586     -54412.115    
     47000   2667.9235      1337.6072     -491.44743      42621.732      3.6005243     -54410.963    
     47100   2826.426       10132.095      3266.3223      13923.043      3.5806696     -54436.633    
     47200   2929.5605      8685.6563      11739.032     -13450.121      3.4757079     -54446.954    
     47300   3008.8863      14370.213      29847.078      2291.7335      3.5455451     -54502.543    
     47400   2961.1797     -10664.307      18878.964     -4859.9965      3.4765718     -54572.389    
     47500   2764.4376     -4864.5386      10860.318     -12218.04       3.502925      -54583.689    
     47600   2683.944      -20031.855     -22904.003     -25112.035      3.47753       -54624.282    
     47700   2378.033      -10409.125     -21351.923     -7632.8931      3.4352886     -54451.901    
     47800   2674.3298      16317.981     -31826.064      15991.408      3.5378147     -54591.686    
     47900   2622.4547     -518.69229     -29956.219     -14754.837      3.4878856     -54525.766    
     48000   2506.718       14543.592      37096.052     -5930.9019      3.500115      -54410.545    
     48100   2644.6599     -5937.003       20721.776      26107.011      3.455868      -54400.838    
     48200   2942.5598      30345.38      -15644.051      16777.276      3.4431067     -54472.515    
     48300   2953.9879      4635.8382     -6371.4734     -5446.5135      3.3848078     -54416.307    
     48400   2940.9219     -34861.918      15426.798     -32305.265      3.3637624     -54390.251    
     48500   2898.7608      34865.488     -1732.7376      24443.023      3.4909412     -54395.73     
     48600   2917.8353      20522.614      10770.877      11772.146      3.4897397     -54454.034    
     48700   2769.0123      20138.968      23505.169      8908.1294      3.5304834     -54420.398    
     48800   2669.0408      3647.4084      2517.8816      17372.309      3.4789753     -54407.862    
     48900   2650.323      -837.40635     -29748.232     -23115.205      3.4285679     -54403.716    
     49000   2584.372      -1813.7984     -18038.267      8114.8889      3.4570046     -54400.099    
     49100   2788.872       8415.6718     -19171.056     -19526.1        3.3989146     -54530.655    
     49200   2550.6113     -23424.462     -21251.07       21976.946      3.4348716     -54393.499    
     49300   2735.7813     -16639.616     -20269.856     -3692.3596      3.4533307     -54472.505    
     49400   2710.5706     -26669.674     -9751.4706      13506.655      3.5267899     -54432.261    
     49500   2627.2182      29462.287     -3248.7238      34483.861      3.5564772     -54381.695    
     49600   2968.2751     -5528.8314     -41885.361      24012.452      3.4692397     -54588.436    
     49700   2584.1724     -6581.2016     -20656.657     -21045.027      3.4386191     -54402.909    
     49800   2527.5814      4544.2673      7337.4014      471.11409      3.4862795     -54439.329    
     49900   2549.1882      14241.638      9804.3119      2458.8009      3.5647147     -54545.196    
     50000   2359.6673      21212.062     -29820.239     -8511.6222      3.4895262     -54505.219    
     50100   2388.2677      4454.6124     -9779.9525     -1096.2058      3.5240252     -54544.681    
     50200   2584.84       -36151.647     -7030.8547     -34109.821      3.4815609     -54630.725    
     50300   2541.3587     -4480.3081     -21405.634     -46914.576      3.4680123     -54530.854    
     50400   2725.0374     -10538.295     -3067.1978     -23075.818      3.5424488     -54502.024    
     50500   2551.0024      9341.618      -6211.833      -3556.1607      3.5770699     -54316.475    
     50600   2859.4171      10642.796     -4230.0384      7422.9497      3.5856871     -54484.275    
     50700   2683.4893      13885.039      3210.6519      5743.71        3.572831      -54421.337    
     50800   2825.5072      11420.455      12696.03      -8142.5879      3.6576775     -54528.954    
     50900   2773.9123      4570.2907     -5651.2599      2520.6818      3.624004      -54578.999    
     51000   2724.4312     -7004.4158     -1126.9303      21933.484      3.6171852     -54631.552    
     51100   2576.9405      12341.487      31002.38       33888.365      3.6453382     -54597.691    
     51200   2620.6844      9019.4043      60393.221      33727.909      3.7426825     -54648.439    
     51300   2599.4949      37528.961      14243.246      9597.4814      3.6585343     -54640.452    
     51400   2648.2813      5862.8155      3404.7771     -1684.6311      3.6055214     -54650.566    
     51500   2904.8101     -865.49945      44637.576     -8440.6307      3.5459137     -54755.271    
     51600   2732.7784     -4037.3173      39415.091      5680.596       3.6141014     -54583.974    
     51700   2785.3671     -33144.106     -15023.245     -22621.906      3.4844165     -54445.079    
     51800   2640.7284     -54173.72       6958.5128      7987.6995      3.4227377     -54260.917    
     51900   2831.8816      32739.548      17434.118      14187.969      3.4985797     -54341.428    
     52000   2588.7706      21166.032      73515.669      16513.12       3.5194312     -54246.499    
     52100   2870.0463      13392.151      42093.909      7934.2785      3.5676469     -54482.283    
     52200   2642.6572      57413.189      28748.944      24979.083      3.6976701     -54464.482    
     52300   2680.5765      46925.748      20309.116      1990.1219      3.6413067     -54581.809    
     52400   2409.0292     -628.02442      31448.688     -350.8371       3.5484941     -54471.326    
     52500   2481.5468      117.11334     -31836.83      -29215.993      3.5926448     -54536.289    
     52600   2578.4271     -43270.157     -14694.163     -11544.597      3.5873451     -54551.634    
     52700   2535.4543     -21582.131     -23454.26      -27034.524      3.5432555     -54485.013    
     52800   2652.1141      24871.186      12899.624     -6536.6569      3.5781666     -54497.16     
     52900   2615.876      -30010.176     -28317.214     -8896.2394      3.3868969     -54439.685    
     53000   2891.917       15231.378      12100.515     -12181.965      3.4877066     -54492.593    
     53100   2872.8869     -9438.363       9857.7917      12447.049      3.5574545     -54363.906    
     53200   2758.6247     -3802.6941      4866.1879     -4823.3204      3.5397995     -54239.385    
     53300   3048.6698      27222.113      27092.776      1125.2181      3.6411143     -54420.963    
     53400   2782.5694      24078.968      23483.007     -26396.76       3.5992071     -54428.361    
     53500   2462.069      -20657.063      11568.021     -1270.3805      3.5081422     -54363.425    
     53600   2612.0075     -33340.787      5651.1288      7082.9312      3.537269      -54480.884    
     53700   2578.5422      24966.382     -9575.9965      35117.541      3.6705906     -54475.96     
     53800   2720.5283      13443.098      2703.4862      7383.7819      3.6991245     -54604.696    
     53900   2707.9445     -26538.129      20668.197      23600.462      3.7926386     -54672.029    
     54000   2681.4618     -39227.43      -4777.0056      2062.6324      3.6346089     -54749.231    
     54100   2534.0999      2232.7535      4034.5545     -25862.434      3.6541724     -54727.256    
     54200   2643.1226      16173.42      -26573.662     -4901.0029      3.7321573     -54794.568    
     54300   2503.8346      2800.0433     -44576.947      1354.0631      3.6758612     -54713.128    
     54400   2763.6665     -32301.461      1989.3418      29939.818      3.7774127     -54817.181    
     54500   2498.0217      1971.1257      23063.158      14132.551      3.8035389     -54637.013    
     54600   3156.6668      34156.567      21660.865      18577.078      3.8907554     -54935.253    
     54700   2927.7926      28513.95       18959.931     -10699.707      3.8035949     -54732.626    
     54800   3080.0383     -25887.452     -33041.231     -17006.482      3.735428      -54778.648    
     54900   2686.1422     -23370.31      -22500.082     -28508.363      3.6878924     -54572.184    
     55000   2676.356      -15993.187     -14008.502     -17085.092      3.6606783     -54638.486    
     55100   2810.7561     -21451.013      14676.382     -7795.0641      3.6847509     -54803.214    
     55200   2711.7504      21437.952      11588.922      24273.479      3.8024067     -54834.69     
     55300   2603.1331      1818.4705     -46197.787      6598.583       3.7935656     -54844.297    
     55400   2602.1577     -20602.228     -8592.3777      15394.775      3.8123328     -54871.838    
     55500   2436.566       15613.697     -8838.1488     -5252.4765      3.7354819     -54769.963    
     55600   2521.9866     -23128.069      6941.9151     -44044.291      3.7291188     -54777.861    
     55700   2474.2945     -18262.33      -25416.942     -15585.599      3.6715345     -54708.865    
     55800   2561.7961     -25510.073     -15237.355     -15442.296      3.6165141     -54720.825    
     55900   2733.1272      8248.0421      2823.1367     -16061.839      3.646141      -54799.166    
     56000   2724.6651     -8449.701       19614.998      6430.7849      3.5864754     -54782.114    
     56100   2704.0279      12584.83       18542.017      3151.4474      3.6581301     -54769.454    
     56200   2674.1251     -20590.493      20642.641      12111.794      3.6453015     -54749.651    
     56300   2756.8486     -20008.752     -27058.894     -11366.741      3.6138689     -54792.072    
     56400   2561.3578      14396.368      585.30657      34777.949      3.7159611     -54669.193    
     56500   2643.7321      5850.0412     -1168.3712      28323.336      3.6197314     -54651.993    
     56600   2646.1197      32369.391     -5360.6301     -11186.981      3.6551383     -54562.528    
     56700   2849.7763      3421.055      -23938.319     -4367.878       3.5865414     -54581.773    
     56800   2798.0099     -11050.212     -13598.512      6499.9836      3.5258372     -54512.233    
     56900   2536.8556     -2631.6259      24590.389      541.60864      3.49828       -54344.014    
     57000   2890.3997      28841.265     -5641.6937      12724.318      3.5178431     -54548.964    
     57100   2940.6243      14638.914     -20614.912     -26379.615      3.5045938     -54652.84     
     57200   2479.8123      2688.4188      49.385955      9012.0464      3.6259446     -54542.386    
     57300   2444.2685     -3228.5992     -4234.6647     -30741.534      3.6098576     -54598.683    
     57400   2418.6525      7079.4886      5196.009      -129.32613      3.6524666     -54603.24     
     57500   2562.38        1251.4347     -13225.93       2312.6009      3.7099869     -54694.517    
     57600   2517.1886     -46364.265     -5320.1629     -18399.496      3.6263521     -54673.869    
     57700   2490.8145     -16785.161     -6068.5121      3969.9874      3.6956683     -54665.446    
     57800   2450.2626      21252.597      23869.252     -19854.206      3.6582773     -54643.875    
     57900   2526.5385     -6559.8919      16123.751      21355.669      3.630826      -54664.174    
     58000   2764.4086     -2938.8918     -5757.7018     -8531.3842      3.6068484     -54717.044    
     58100   2927.0321      13584.098      27253.982      20837.557      3.7132998     -54707.159    
     58200   2572.0541      12003.373      24599.93       20393.193      3.6175786     -54469.771    
     58300   2780.6439      20139.506      18943.413      13900.283      3.6040872     -54586.57     
     58400   2896.0087      9868.7549      22308.593      7393.8903      3.6726272     -54702.687    
     58500   2352.1437      27024.227     -12201.64       34194.244      3.627483      -54502.547    
     58600   2474.5361      27005.487      13778.908     -2855.48        3.6693522     -54667.182    
     58700   2576.1109     -5786.9338      36965.462      11015.6        3.6844778     -54749.505    
     58800   2627.3272     -1762.8103      36737.475      15813.634      3.6823208     -54774.184    
     58900   2477.3036     -2172.3435      6404.8545      30726.268      3.6588493     -54678.369    
     59000   2284.6499     -19142.83       1934.5618      5014.2003      3.6093571     -54545.068    
     59100   2729.2627     -2054.6327      5191.7408      16168.044      3.7802794     -54752.843    
     59200   2564.3825      32740.463      3944.7644     -20432.236      3.7521617     -54663.422    
     59300   2825.4872     -18107.902     -17565.92      -32148.421      3.7078974     -54830.095    
     59400   2517.1469     -1533.0165     -6908.1567     -11495.796      3.7227837     -54688.901    
     59500   2526.4649      24162.995     -15931.115     -31551.67       3.6688333     -54695.924    
     59600   2538.7214      1401.312       21456.66      -27254.573      3.7188921     -54686.04     
     59700   2698.5927      26552.354     -7964.3817     -8100.5376      3.7508789     -54746.923    
     59800   2534.04        41171.547     -22166.995     -27496.802      3.7144629     -54634.441    
     59900   2555.6072      9041.6024      23920.897     -1459.834       3.697565      -54634.492    
     60000   2505.673       44273.349     -8234.639      -6461.7929      3.6918081     -54615.549    
     60100   2488.4092     -23845.073     -49220.894     -39555.143      3.5837364     -54606.517    
     60200   2533.8751     -15002.16      -37688.795     -41536.258      3.564286      -54618.995    
     60300   2610.7888     -489.57651     -27178.538     -21282.671      3.6063443     -54665.86     
     60400   2601.7037      16108.911      24489.298      4395.2148      3.6304022     -54662.262    
     60500   2685.978      -19452.277      5172.0157      16454.027      3.6136746     -54669.628    
     60600   2551.9418     -32568.934     -31964.335      15342.908      3.5590416     -54554.086    
     60700   2794.963      -9139.3894      685.52033     -1451.74        3.5269567     -54625.848    
     60800   2965.7794      33583.895      16568.86       10882.981      3.6362924     -54670.956    
     60900   2726.5154     -21325.301     -767.24056     -2991.8294      3.5629825     -54502.232    
     61000   2822.0715      8754.5565      21493         -7404.5732      3.5821582     -54520.539    
     61100   2789.573       11257.953      56976.487     -1655.724       3.6558741     -54529.797    
     61200   2622.0754      6607.806       36521.153     -16873.438      3.5714064     -54525.599    
     61300   2582.6088     -22042.84       13378.89       1528.0246      3.5184137     -54624.921    
     61400   2457.4663     -7244.5602      25516.166      18897.013      3.5958669     -54620.231    
     61500   2568.1314     -4920.5562      34123.937      34741.25       3.654252      -54691.743    
     61600   2523.113      -2645.81       -12924.251     -32214.766      3.5162906     -54633.587    
     61700   2612.8542     -1908.781      -6886.766      -5055.0533      3.574327      -54654.628    
     61800   2607.2118     -8356.6768      557.4406      -16333.419      3.5668174     -54646.644    
     61900   2727.781      -46738.035     -106.76403     -23492.485      3.5700806     -54717.82     
     62000   2821.1747      17213.994     -11606.686     -18236.411      3.6238433     -54815.154    
     62100   2578.4118      1325.8601      1156.9252      6699.5409      3.6593792     -54803.13     
     62200   2457.3226      1490.9363     -18641.858     -14439.652      3.5913792     -54832.237    
     62300   2457.0608      21580.756     -5757.6382     -3007.5612      3.7297347     -54882.996    
     62400   2470.6397      14677.709     -47.411495     -23816.762      3.7121754     -54887.96     
     62500   2519.3216      5673.561       16057.493      5856.5834      3.7004845     -54875.355    
     62600   2560.803      -5688.6155      22385.391      22173.969      3.6393227     -54824.447    
     62700   2526.8807      26259.085     -21795.071     -326.27793      3.588222      -54698.246    
     62800   2651.9123     -10804.817     -6442.8644      10063.67       3.5686506     -54697.527    
     62900   2309.3062     -12836.373      9763.7397      11006.22       3.5064554     -54475.8      
     63000   2771.4336      10384.934     -6871.872       23957.132      3.6298138     -54710.307    
     63100   2716.661       12891.666      67991.504      20265.454      3.6892023     -54675.236    
     63200   2562.8456     -12448.887      3744.7609      8923.7881      3.6224622     -54626.722    
     63300   2541.683       2660.306       18219.959      7421.5065      3.5968129     -54664.294    
     63400   2726.1498     -3003.1972      40794.29      -2991.8672      3.6445955     -54841.234    
     63500   2532.2735     -364.60753      2014.6776      8816.3126      3.6132609     -54823.359    
     63600   2384.2331      18127.548      37776.147      5605.7486      3.6212499     -54813.627    
     63700   2518.9576      38499.349      34841.713     -12919.85       3.6889508     -54882.609    
     63800   2591.8761      2351.9903      23066.115     -11588.789      3.6282682     -54883.82     
     63900   2582.2749     -14390.714     -11562.766     -34004.329      3.5989429     -54824.331    
     64000   2556.9038     -13913.566     -601.62833     -9454.5911      3.6159666     -54769.636    
     64100   2572.7815      4076.7577     -41056.626     -32896.695      3.5594489     -54743.393    
     64200   2479.7294     -9827.1112      392.54086     -34147.403      3.6054501     -54653.721    
     64300   2718.9276     -5616.0935      10897.131     -18799.269      3.6417678     -54730.957    
     64400   2626.968      -1681.4571      52161.275     -41973.108      3.6526644     -54642.809    
     64500   2445.6211     -20100.137     -16152.255     -13847.542      3.5607175     -54530.187    
     64600   2599.5449      1913.8292     -24018.077     -13162.434      3.6050617     -54637.114    
     64700   2692.1855      31731.314     -379.60812     -24183.975      3.6652161     -54762.543    
     64800   2602.853       47141.164      37396.489      4440.2018      3.6179251     -54800.728    
     64900   2479.6713      12844.926      24694.963     -5480.1673      3.5844886     -54844.913    
     65000   2561.8794     -826.17322      15626.944     -3960.585       3.5973137     -54932.883    
     65100   2480.6706      8931.7145     -4957.1027     -7078.6864      3.558734      -54878.627    
     65200   2374.1363     -32996.764     -10328.423     -27416.992      3.5364901     -54793.201    
     65300   2415.4186     -19036.502     -11711.032     -10122.109      3.5404785     -54756.219    
     65400   2432.322      -11993.559     -24618.42       10098.054      3.4620234     -54696.055    
     65500   2593.7282      18906.926      6889.3395     -19434.044      3.521047      -54725.327    
     65600   2553.9087     -7299.1769     -31103.514     -11255.822      3.4516828     -54665.891    
     65700   2766.9625      21019.909      17697.925      15102.119      3.5952845     -54782.382    
     65800   2405.3742      23932.823     -5029.0591      19023.112      3.4719593     -54585.865    
     65900   2394.3128      1948.3048     -17661.795     -5574.9687      3.4080658     -54576.835    
     66000   2425.3552     -10197.178     -15483.017     -5779.4233      3.4611885     -54576.756    
     66100   2515.4143      4846.0212     -6691.1529     -35050.459      3.4841598     -54574.784    
     66200   2516.7328     -21322.062     -13362.239     -23063.174      3.4053147     -54513.922    
     66300   2775.6104     -371.4812      -28622.876     -2579.1935      3.4117204     -54576.438    
     66400   2951.1129     -20553.209      28032.305      19719.278      3.4750311     -54571.112    
     66500   2794.9326     -7006.7323      2354.4533      12364.223      3.3673965     -54431.655    
     66600   3081.2198      23790.866     -35216.115      4017.1565      3.3683647     -54584.067    
     66700   2783.4433     -3332.9419     -11905.386      8657.6391      3.4406647     -54527.832    
     66800   2419.687      -14719.909     -17870.048     -8087.315       3.3931735     -54497.42     
     66900   2396.8232     -17190.672     -25047.87      -23280.63       3.3762511     -54530.423    
     67000   2459.4602      527.57467     -16701.713     -15048.449      3.4456691     -54576.464    
     67100   2493.1433      29842.005     -25215.553      1036.5784      3.4248129     -54604.173    
     67200   2513.7498      12152.671     -31943.155     -3439.5422      3.4650634     -54614.813    
     67300   2537.4988     -3344.9744     -10895.417     -21045.14       3.4305895     -54628.443    
     67400   2531.4945     -1709.0901      852.562        15012.626      3.5156923     -54621.994    
     67500   2535.7682      43049.8       -18333.492      14300.792      3.4989152     -54601.216    
     67600   2574.8259      31961.943     -16024.499     -15447.135      3.4661638     -54605.254    
     67700   2799.7295      7689.2421     -25447.746      23643.457      3.5547914     -54705.544    
     67800   2599.7208      15303.026     -977.42026      1777.7264      3.5197997     -54579.035    
     67900   2616.5664      9886.1673      5810.754       19555.569      3.5272335     -54551.812    
     68000   2469.7533      13964.759      23596.847      5198.9692      3.5205419     -54440.525    
     68100   2561.5272      10883.999     -1003.5483     -17453.545      3.4499645     -54470.357    
     68200   2618.485       18280.654     -31224.722     -4834.4605      3.5876185     -54512.573    
     68300   2698.2553      12702.66      -10106.703     -23058.105      3.4892197     -54622.013    
     68400   2603.3858      3937.8         1125.7997      2390.6713      3.4645435     -54671.253    
     68500   2611.7791     -20380.675      18771.015      32653.026      3.5121982     -54753.402    
     68600   2667.8068      35749.215      23225.465      25748.777      3.5772002     -54826.306    
     68700   2435.4764      28870.804      12818.863     -16542.425      3.51025       -54715.546    
     68800   2481.5656     -15567.49       7323.0553     -10696.077      3.5166061     -54744.853    
     68900   2407.0608      3685.3476     -8270.0934     -33682.666      3.5268961     -54697.313    
     69000   2604.746       15648.002      79.530616      17695.547      3.6519534     -54748.019    
     69100   2857.4749      19467.343      27781.27       1350.4044      3.5973471     -54768.129    
     69200   2610.8291     -8661.9199      25111.575     -3720.7157      3.5478678     -54523.265    
     69300   2689.4449      17033.708      13267.68       14677.489      3.5501416     -54518.409    
     69400   2744.7697      81167.596      26402.327      23147.094      3.5698297     -54558.84     
     69500   2630.2555      27748.136      31391.791      55532.676      3.6117746     -54534.174    
     69600   2530.5906      4157.5813     -767.80346     -35979.253      3.5018632     -54519.237    
     69700   2722.7852     -1530.718       584.53597      6796.5267      3.6081212     -54651.414    
     69800   2684.4116     -14250.147     -5738.3551     -19209.22       3.5308302     -54676.308    
     69900   2622.7995     -1386.9661     -2111.9123     -6989.8586      3.5779166     -54716.527    
     70000   2590.6118     -25159.241      33241.779      4119.4957      3.6271666     -54754.991    
     70100   2402.736      -3777.7865      3070.5466      15992.508      3.6599143     -54691.886    
     70200   2410.578      -9587.4233     -12710.937     -1513.8089      3.6119722     -54700.119    
     70300   2437.928      -10236.684     -29795.169     -2246.6338      3.5885079     -54682.922    
     70400   2445.3568     -30359.9       -39684.984     -28379.106      3.5115575     -54618.417    
     70500   2704.4488     -32704.109     -39731.486     -46600.804      3.4604743     -54634.372    
     70600   2524.4489      13140.788     -817.69882     -6016.0729      3.4467803     -54431.143    
     70700   2670.3936      38070.775      51333.307      3691.766       3.5541994     -54482.965    
     70800   2502.9089      34946.616      2097.6322      13510.465      3.5504536     -54408.428    
     70900   2631.0684      13820.692      22604.947      1338.99        3.6071409     -54505.317    
     71000   2568.5158     -24591.421     -2484.2761     -37411.093      3.5005072     -54514.411    
     71100   2569.4707     -14627.717     -11340.968     -14427.926      3.5263608     -54567.378    
     71200   2451.7846     -31089.507      18609.045     -9084.7101      3.5911451     -54567.103    
     71300   2310.8596      17588.199      12623         -15517.741      3.5156494     -54555.77     
     71400   2276.926      -4638.1367      5815.0362      9626.1055      3.4961185     -54577.295    
     71500   2479.6203     -13170.631      18793.158      24802.341      3.6128802     -54702.837    
     71600   2336.1874      2524.4724     -1750.414      -17788.908      3.5449213     -54630.727    
     71700   2416.8832     -19402.795     -16353.582      5474.3384      3.6018552     -54678.383    
     71800   2472.6881      4623.5594      20672.025      139.98565      3.6498285     -54661.135    
     71900   2636.3967     -14867.399      5440.758      -50482.677      3.5044846     -54682.904    
     72000   2624.7507     -29285.96      -16165.734     -23133.82       3.5297745     -54643.468    
     72100   2515.8338     -42913.949     -42697.506     -28364.619      3.481254      -54606.129    
     72200   2623.6915      1540.3969     -5282.8216     -1400.5008      3.6369285     -54715.422    
     72300   2270.8417      15635.346     -7919.2349      6301.1701      3.5327529     -54581.324    
     72400   2147.767       17627.353      8081.6406      7731.2441      3.4984572     -54545.157    
     72500   2358.938      -17727.784     -13301.055     -8102.9398      3.5305948     -54650.303    
     72600   2459.312      -55990.582     -51081.506     -50454.871      3.4780224     -54638.964    
     72700   2331.0159      8200.6918     -840.03507     -28885.169      3.5339447     -54453.98     
     72800   2473.1966     -6663.8199     -16128.953     -39174.023      3.564061      -54453.771    
     72900   2417.9148     -39875.847     -43888.67      -35185.469      3.5046394     -54409.82     
     73000   2514.6071      8208.735      -12962.447     -3874.8255      3.5656084     -54495.928    
     73100   2619.1467      22327.627      9920.6442     -18565.322      3.5830625     -54605.308    
     73200   2372.7747      14296.609      26088.097     -23184.398      3.5630294     -54539.556    
     73300   2511.6535      43677.115      36546.376      31680.25       3.6838779     -54668.812    
     73400   2450.5003     -2627.2868      9283.5037      26284.103      3.6011905     -54652.525    
     73500   2446.6598     -7010.8357     -3892.1052     -46807.952      3.5483711     -54641.536    
     73600   2772.7257      7403.621       12533.655     -5957.9899      3.6053926     -54793.676    
     73700   2677.4861      22602.052     -1565.8004     -13412.918      3.5284809     -54725.14     
     73800   2605.4634      13123.243     -9068.7419      8311.3043      3.5144961     -54680.367    
     73900   2568.8189      10918.493     -23535.946     -2101.6543      3.5016439     -54679.695    
     74000   2421.7478     -15654.461      20651.673     -41966.603      3.526864      -54652.261    
     74100   2345.0001      8057.8497     -925.66428     -21661.283      3.456623      -54643.868    
     74200   2295.6105     -7398.2765     -19342.081     -13563.281      3.3855977     -54628.051    
     74300   2257.8735     -3249.1209     -30815.466      18801.199      3.4671859     -54580.708    
     74400   2540.7758      12700.764     -38076.16      -15415.41       3.4162103     -54684.513    
     74500   2470.7215      32605.203     -15464.586     -27227.043      3.488379      -54587.61     
     74600   2509.4505      22893.662     -27804.324     -5976.0967      3.5361826     -54559.399    
     74700   2635.2108      6279.89       -7802.8042     -26257.505      3.4551291     -54577.695    
     74800   2708.5384      8985.1065     -32427.572     -1035.3882      3.5450191     -54584.582    
     74900   2599.1533     -8426.9134     -50758.81      -26077.232      3.5180208     -54563.805    
     75000   2364.2217     -16814.367     -30691.289     -8344.837       3.5344058     -54557.723    
     75100   2367.4759      20143.641      13553.673      7147.098       3.6219948     -54666.477    
     75200   2458.9158     -20377.646     -12504.468     -19908.868      3.5483494     -54752.696    
     75300   2397.8056     -17056.729      12593.936     -8144.7035      3.6196644     -54738.074    
     75400   2357.342      -30634.559     -225.82499     -15751.234      3.6002706     -54726.277    
     75500   2450.7834     -36658.691     -14841.709     -28820.071      3.5278069     -54760.689    
     75600   2576.8976     -32945.209     -21938.502     -44534.659      3.554779      -54780.781    
     75700   2525.5969     -30691.548      16606.553     -18535.479      3.6622007     -54699.457    
[...]
    382300   459.48025      6732.716       14504.662      18298.522      4.1360946     -56551.373    
    382400   452.87183      8535.7117      17580.599      16251.703      4.1589362     -56534.613    
    382500   480.3535      -3305.5507     -7666.5428     -13805.084      4.1071824     -56540.421    
    382600   454.20716     -3756.5844     -6027.1078     -11474.465      4.1226655     -56527.124    
    382700   442.2611       2659.1104     -543.46262      1672.1996      4.1346548     -56540.438    
    382800   424.0699       3995.5271      4996.8302      7935.3269      4.1283324     -56553.497    
    382900   461.04001      141.00303      6187.3144     -3949.4084      4.1374234     -56583.814    
    383000   387.23952     -1764.101      -3966.8007     -7078.1102      4.1195637     -56549.974    
    383100   448.6765      -4800.1661     -12701.711     -8238.9276      4.1179156     -56586.289    
    383200   425.25374     -4809.3981     -6753.3018      486.49536      4.1271858     -56574.961    
    383300   419.26233     -1595.544       2301.1045     -7428.0729      4.1318852     -56570.736    
    383400   385.62478      4276.5472     -3612.4917     -6108.3473      4.1382654     -56549.679    
    383500   416.69159      5403.4988     -4869.461      -1722.3491      4.1371483     -56558.639    
    383600   424.83174     -329.00511     -10825.194     -2332.1122      4.114077      -56548.169    
    383700   436.63327      2626.972      -14690.166     -10140.631      4.1382499     -56543.229    
    383800   455.31053     -15328.179     -5433.6144     -8025.045       4.1161725     -56550.075    
    383900   430.88274     -9058.9899     -7189.2233     -11679.413      4.1024088     -56540.885    
    384000   405.07062     -8307.8586     -706.84904      3922.1813      4.1092518     -56545.075    
    384100   405.93653     -2993.7392     -777.46452      12164.68       4.1368589     -56566.043    
    384200   399.86859      538.42377      1845.8668      10209.546      4.1404002     -56568.739    
    384300   389.73582     -499.54029      5264.2196      3056.4559      4.1516687     -56564.118    
    384400   377.18112      5527.663       2567.8661      2791.8509      4.1411122     -56556.426    
    384500   398.31881     -5572.4464     -111.39419      11092.515      4.1155212     -56565.956    
    384600   399.7549       6593.4875     -495.38645     -15294.087      4.1138312     -56561.347    
    384700   409.67962      12281.542      5682.1248     -2774.3376      4.1471191     -56560.197    
    384800   443.89921      13549.693      5052.4446     -810.76149      4.1476806     -56564.464    
    384900   437.40957     -1240.816      -4071.2438     -12915.687      4.1246502     -56547.628    
    385000   430.8659      -6351.3653     -5239.221       7741.9632      4.1314608     -56540.632    
    385100   423.94899      13933.456      8219.7154      15262.519      4.1570175     -56544.249    
    385200   420.08821      8963.2999      7608.8166      5474.8631      4.1377129     -56564.629    
    385300   425.13576      1920.7786      2932.8568      8036.3711      4.1537154     -56585.041    
    385400   373.59602      14287.174      3426.5291      5098.5637      4.1403622     -56562.044    
    385500   394.34985     -1642.3947     -768.06504      16566.669      4.1486174     -56573.074    
    385600   394.63655      5687.4477      9131.2954      1343.2999      4.1531392     -56570.491    
    385700   410.89346     -4437.1379      1276.8724     -1995.8973      4.1246974     -56576.313    
    385800   381.54755     -10245.699     -468.12226     -5426.1954      4.1321653     -56556.843    
    385900   424.23595     -12507.084     -17900.406     -18738.771      4.1077847     -56574.683    
    386000   418.38299     -6666.1705     -18598.238     -11132.567      4.0992788     -56563.745    
    386100   429.97727     -3158.9682     -8623.9128     -4647.739       4.1231257     -56561.33     
    386200   451.88546      553.58404     -1027.2594      36.386582      4.1220394     -56567.569    
    386300   399.28516      3425.4314      6882.4487      15609.761      4.1388357     -56543.195    
    386400   404.65629     -318.70669      490.7596      -7852.6178      4.1340855     -56562.948    
    386500   391.64667     -7068.8968     -5699.6808     -12455.321      4.1361098     -56574.604    
    386600   363.36523     -14028.059      277.84819     -4961.6601      4.1428397     -56568.466    
    386700   382.80265     -3016.7074      10016.187     -5981.9395      4.1433225     -56581.334    
    386800   384.92229     -5305.2283      3948.4049     -2292.8422      4.1337936     -56581.719    
    386900   394.44259     -8750.4807     -3721.586      -10961.37       4.1366979     -56582.739    
    387000   383.599       -6660.3724      6271.0997     -271.14907      4.1368004     -56570.56     
    387100   383.17865     -1885.9351      3101.3168     -3644.3895      4.1368673     -56559.613    
    387200   441.69482     -1007.3403     -4021.9735     -10500.715      4.1275098     -56575.178    
    387300   425.05453     -6246.0769     -877.7189       3942.007       4.1182575     -56556.182    
    387400   411.31793      5643.4961      4251.8892      3999.5039      4.1293065     -56549.467    
    387500   425.14118      17128.822      578.05725      17163.852      4.172301      -56568.544    
    387600   369.25414      8912.4731      4608.9503      9612.2308      4.1568665     -56561.808    
    387700   371.8146       6328.8824     -4097.2431      5070.9479      4.1198337     -56575.957    
    387800   380.98408      7386.0582     -3208.0722      15929.785      4.1399446     -56583.293    
    387900   352.25537      14363.973      7005.94       -7026.8979      4.1398836     -56565.262    
    388000   380.37768     -666.58323     -401.4814      -8467.3083      4.1451656     -56576.966    
    388100   381.138       -1605.409       374.83224      2829.3361      4.1390285     -56574.228    
    388200   384.83645      10572.511      2146.4597     -2987.2886      4.1416478     -56574.838    
    388300   389.04822     -3024.3431      4392.1722      14314.473      4.1433917     -56573.163    
    388400   400.58377      9549.6842      9253.5044     -2404.0216      4.1542264     -56578.575    
    388500   409.08637      4842.5924      17665.664     -4948.8016      4.1508059     -56584.229    
    388600   389.75884      1730.0914      18193.821      9912.1543      4.1728995     -56579.638    
    388700   358.05144      3041.2423      10440.231      2249.3634      4.1416723     -56572.688    
    388800   331.46167      2005.8282      1355.2473     -313.84197      4.1177861     -56568.832    
    388900   336.58067      2491.122       1326.9485     -5186.4241      4.1479808     -56580.509    
    389000   357.30832      2993.2997     -1984.8873      8087.8013      4.1485231     -56594.614    
    389100   350.32674      7531.0854     -2364.0725      21845.902      4.150868      -56587.213    
    389200   367.90357      5247.388       2510.9893     -1455.7149      4.1446335     -56585.769    
    389300   382.19618      11340.329      1226.0767      4095.4222      4.1380515     -56573.178    
    389400   380.89373     -1704.8731      7265.1199      4116.2739      4.1315451     -56560.033    
    389500   381.72193      1503.5465     -5570.6801     -4725.3312      4.1090789     -56560.989    
    389600   397.00023      3051.7439     -4507.5044      5676.6651      4.1226542     -56574.556    
    389700   359.52601      13093.34       4835.3838      10121.305      4.1545895     -56561.308    
    389800   357.80657      12270.108      9386.8474      13157.241      4.1629827     -56571.025    
    389900   366.43527      6579.8509      12732.976      9013.3345      4.1630546     -56585.516    
    390000   363.42934      6439.0057      12196.064     -365.96728      4.1580939     -56588.762    
    390100   363.99897      9190.9651     -169.81465      1284.8238      4.1580045     -56591.578    
    390200   368.92211     -142.4513       6017.8445     -7515.2239      4.1541467     -56594.366    
    390300   344.11718      2665.4851     -14482.639     -479.56999      4.1332114     -56579.139    
    390400   357.00296      2151.8092     -18456.961      2395.6714      4.1179147     -56584.381    
    390500   362.55257     -11741.877     -2476.3187      6449.2264      4.122384      -56583.75     
    390600   374.68005     -11269.623     -17182.673     -12026.436      4.1129105     -56584.743    
    390700   373.81504     -6774.1069     -20648.79      -17789.578      4.1188475     -56569.587    
    390800   408.28834     -4105.4935     -16749.691     -5359.7813      4.1135206     -56566.602    
    390900   393.38889     -3332.2904     -3062.3559     -5005.5659      4.1156353     -56549.993    
    391000   419.84361      3019.8751      7641.5501      4859.1403      4.1500853     -56571.208    
    391100   380.09259      7804.0506      8201.0345      11989.777      4.1344291     -56566.621    
    391200   366.62912      10303.759      15072.213      10594.295      4.1451433     -56575.516    
    391300   394.06086      4146.5642      18792.867      21808.465      4.138191      -56597.956    
    391400   339.86465      12746.911      19685.578      11798.678      4.1608437     -56574.581    
    391500   351.06951     -5055.934       1104.1546      7147.5792      4.1246618     -56587.293    
    391600   378.27777     -9734.1223      4278.9015     -5481.3196      4.134408      -56606.586    
    391700   341.16821      4622.0637     -1911.5673     -1304.4823      4.1499978     -56588.322    
    391800   347.74438     -921.4241       996.61147      2317.7717      4.1266794     -56593.471    
    391900   346.83059      4320.9101     -1072.8304     -536.10599      4.1216378     -56593.434    
    392000   352.65385     -6149.2916      3976.396       146.01392      4.1275824     -56595.594    
    392100   335.94251     -5269.1722      4635.6932     -145.79805      4.1345114     -56580.026    
    392200   344.97716     -739.98762     -8399.2764      1147.2647      4.1284958     -56578.481    
    392300   359.24653     -7722.1158     -530.6985       4173.4822      4.1109444     -56579.164    
    392400   352.89174      16693.072      13672.32      -2004.7623      4.157076      -56573.929    
    392500   388.02744     -206.66431      8457.0811     -8823.2376      4.1376204     -56595.495    
    392600   349.98389     -13209.045     -14937.06      -7430.5235      4.1134465     -56583.41     
    392700   352.94042     -10094.246     -20091.17      -21174.879      4.1191553     -56599.471    
    392800   344.85475     -5107.6038     -9101.4417     -16888.666      4.1316668     -56604.605    
    392900   356.64942     -20961.276     -7239.2823     -6729.6181      4.1194364     -56615.436    
    393000   340.79048      567.5879      -653.49624     -6851.5845      4.1472103     -56607.541    
    393100   358.02883     -6317.9055      6203.3616     -4876.2996      4.141446      -56614.013    
    393200   349.65604     -476.98189      6513.4021     -7732.9212      4.1419294     -56604.341    
    393300   357.92968      13666.344      14137.679     -1919.0894      4.1376653     -56599.334    
    393400   367.04618      2445.5761      9607.9435      28952.593      4.1769753     -56591.192    
    393500   383.53459      13538.085      15446.464     -2099.8907      4.1688799     -56582.174    
    393600   372.40247      3607.1419      16637.99      -762.27649      4.1618783     -56565.55     
    393700   406.91157      13171.045      3904.5447     -9729.5338      4.1238786     -56587.05     
    393800   341.55363      2806.0527      17800.564      21912.903      4.1602938     -56569.99     
    393900   349.79828      2682.1294      10395.634     -8399.296       4.1616703     -56593.836    
    394000   337.79434     -576.18617     -17177.016     -5110.2193      4.1342118     -56592.942    
    394100   339.75417      2491.8079      4930.3583      5535.7157      4.1501029     -56596.378    
    394200   343.86538      3718.1983      4327.0487     -1891.49        4.1433683     -56603.21     
    394300   348.42038     -5886.6221      557.98626     -4252.7162      4.1487707     -56609.213    
    394400   342.20748     -4710.3771     -3666.8454      7515.5369      4.1563152     -56610.017    
    394500   323.7496      -7706.7563      56.363006     -17749.481      4.124487      -56602.732    
    394600   322.06951      1136.6309     -3268.7051     -408.70754      4.1506868     -56605.19     
    394700   301.55428      10314.686      12456.098      2700.3918      4.1637829     -56593.76     
    394800   336.92239      24663.757      16113.602      12332.304      4.1824719     -56608.53     
    394900   350.1799       21962.632      28792.213      20269.654      4.1782048     -56607.981    
    395000   320.91766      28628.106      13683.39       26595.885      4.1866399     -56583.553    
    395100   376.73226      6395.5388      5042.6161      23098.355      4.1593775     -56603.865    
    395200   374.49152      10167.157      1078.1769      4090.3909      4.1435827     -56597.44     
    395300   358.50071     -3485.8193     -1017.4192     -2546.8918      4.1382474     -56593.421    
    395400   333.95368     -5184.0148     -3323.689      -1072.8644      4.1387845     -56594.237    
    395500   327.77192     -5022.2892      3335.4025      1225.8089      4.1685864     -56608.274    
    395600   322.36242     -13034.972     -2329.3854     -6546.5839      4.1376299     -56611.614    
    395700   328.55993     -4026.2202     -3635.1095     -5518.3103      4.1332193     -56616.155    
    395800   342.46451     -3513.3268     -3710.3978     -4540.8874      4.1101799     -56622.28     
    395900   345.80064      2275.9291      4711.3527      10839.149      4.1403942     -56619.937    
    396000   323.39007      405.73097      958.34481      5261.1031      4.1586887     -56602.582    
    396100   332.18239      7034.9001     -2414.4799     -8362.281       4.1451551     -56600.861    
    396200   370.56061     -3771.4168     -6198.8769     -11705.523      4.1274176     -56617.181    
    396300   341.5579       5808.2001     -4403.6768     -4690.5699      4.1297712     -56597.862    
    396400   361.21478     -4687.9585     -1562.982       15375.507      4.1446428     -56610.413    
    396500   326.67262     -2726.0117      6696.2465      5762.3217      4.1379188     -56600.554    
    396600   306.05477     -9497.6852      2838.0944      3359.34        4.1411605     -56604.025    
    396700   299.6816      -370.5086      -5536.146       646.13918      4.1214707     -56609.507    
    396800   301.79043      245.02855     -7340.5701     -2535.7754      4.1318394     -56613.969    
    396900   312.26902      8902.9699     -625.8294       3783.4938      4.1530312     -56618.73     
    397000   301.76406      5530.4091      2864.1972      8287.209       4.1542547     -56609.664    
    397100   324.30119      8.0475604      1007.3348     -3401.6942      4.1469615     -56614.787    
    397200   356.32617      11225.723      5426.9614     -1105.9563      4.1506185     -56618.938    
    397300   348.33071      10073.511      6403.8073      2253.6063      4.1544666     -56603.113    
    397400   361.06612      1031.8371     -2985.7767      2551.0708      4.1424388     -56606.521    
    397500   341.76078      5560.8721      19480.537      8964.6187      4.170869      -56599.184    
    397600   345.09848      5814.5172     -2701.1246      2842.9732      4.1601364     -56609.772    
    397700   336.62575     -18207.332     -7723.8272     -17852.281      4.1218391     -56611.642    
    397800   306.80507     -6384.5376     -1938.6592     -9312.3922      4.1410097     -56599.337    
    397900   317.77864      3848.9137     -202.66325     -98.492315      4.1411147     -56609.929    
    398000   307.55966      7274.1805      9290.6653      7997.4307      4.1719859     -56609.916    
    398100   330.37946      13735.233      17915.415      4827.5706      4.1807628     -56628.379    
    398200   301.16288     -68.037221      24718.077      7599.0726      4.1844151     -56618.567    
    398300   314.47089     -1781.4542      10051.482     -4758.0355      4.1531704     -56630.858    
    398400   297.56812      4124.8864     -3785.1797     -9108.823       4.1207837     -56625.719    
    398500   289.45231     -2039.5523     -10889.339     -7158.5081      4.1280585     -56624.225    
    398600   320.0235      -16650.453     -8350.1427     -7358.3795      4.1326444     -56639.502    
    398700   298.17812     -3619.5142      1358.0549     -5836.089       4.139405      -56620.83     
    398800   294.9441       9481.5675      5466.2464      15136.636      4.1581093     -56607.802    
    398900   327.51556      15289.664      3112.8488      5422.3508      4.150082      -56615.324    
    399000   318.57384      10253.334     -2205.9558     -3339.9958      4.159009      -56605.946    
    399100   345.28956     -4507.7396      2789.9986     -3491.9177      4.1495602     -56621.318    
    399200   309.55861      2846.3337     -742.95861      1053.0082      4.1598157     -56607.612    
    399300   295.59102      3740.1126     -4236.7176     -9934.7897      4.1257974     -56611.356    
    399400   298.89994     -7139.5401     -2047.9755     -5863.586       4.136467      -56624.175    
    399500   266.31766     -4812.9155     -5155.5254      1088.6454      4.1401223     -56610.963    
    399600   287.21665     -2993.7483     -4641.9573     -1605.5877      4.1408186     -56622.566    
    399700   287.94868      1117.7613      7000.0327     -1446.1801      4.1519727     -56621.014    
    399800   298.05466      3355.4928     -5528.7017      4164.9594      4.1415407     -56623.617    
    399900   293.51637     -1362.1273     -2227.2897     -4362.0253      4.1543628     -56618.746    
    400000   305.57236      464.61548     -5976.0321     -4662.4222      4.1373796     -56621.699    
Loop time of 477.354 on 1 procs for 400000 steps with 189 atoms

Performance: 36.200 ns/day, 0.663 hours/ns, 837.953 timesteps/s, 158.373 katom-step/s
99.9% CPU use with 1 MPI tasks x no OpenMP threads

MPI task timing breakdown:
Section |  min time  |  avg time  |  max time  |%varavg| %total
---------------------------------------------------------------
Pair    | 367.29     | 367.29     | 367.29     |   0.0 | 76.94
Kspace  | 65.847     | 65.847     | 65.847     |   0.0 | 13.79
Neigh   | 36.123     | 36.123     | 36.123     |   0.0 |  7.57
Comm    | 4.6088     | 4.6088     | 4.6088     |   0.0 |  0.97
Output  | 0.073128   | 0.073128   | 0.073128   |   0.0 |  0.02
Modify  | 2.7093     | 2.7093     | 2.7093     |   0.0 |  0.57
Other   |            | 0.7047     |            |       |  0.15

Nlocal:            189 ave         189 max         189 min
Histogram: 1 0 0 0 0 0 0 0 0 0
Nghost:           3259 ave        3259 max        3259 min
Histogram: 1 0 0 0 0 0 0 0 0 0
Neighs:          40418 ave       40418 max       40418 min
Histogram: 1 0 0 0 0 0 0 0 0 0

Total # of neighbors = 40418
Ave neighs/atom = 213.85185
Neighbor list builds = 43628
Dangerous builds = 0

#      minimize          1.0e-6 1.0e-3 1000 1000000

write_data        ${runString}.data nocoeff
write_data        cool_npt.data nocoeff
System init for write_data ...
Ewald initialization ...
  using 12-bit tables for long-range coulomb
  G vector (1/distance) = 0.29065306
  estimated absolute RMS force accuracy = 0.033227763
  estimated relative force accuracy = 0.00010006442
  KSpace vectors: actual max1d max3d = 128 4 364
                  kxmax kymax kzmax  = 4 4 4
Generated 0 of 1 mixed pair_coeff terms from geometric mixing rule
Total wall time: 0:07:57
