ITEM: TIMESTEP
0
ITEM: NUMBER OF ATOMS
189
ITEM: BOX BOUNDS pp pp pp
0.0000000000000000e+00 1.6000000000000000e+01
0.0000000000000000e+00 1.6000000000000000e+01
0.0000000000000000e+00 1.6000000000000000e+01
ITEM: ATOMS id type x y z ix iy iz
58 2 1.34528 4.68919 1.84443 1 1 2
164 1 4.78746 1.28551 0.516704 1 1 -1
4 2 1.84733 1.5392 3.08178 1 1 -1
90 1 2.54983 2.59915 1.98156 1 1 0
114 1 3.18419 4.76605 1.34813 1 0 0
122 1 0.361695 2.43498 3.31484 0 -1 1
131 1 5.18708 2.43472 3.19498 0 1 -1
155 1 1.80774 1.56007 5.10596 1 1 -1
88 1 0.554009 0.117539 3.08785 0 1 -1
22 2 4.80494 1.38709 5.09779 0 0 0
18 2 4.28327 2.89254 1.47622 1 1 0
160 1 6.10135 3.14026 1.43233 1 1 0
177 1 8.57682 3.07864 1.78884 -1 -1 -1
59 2 7.15177 2.44371 3.40922 0 0 1
109 1 7.62429 4.06722 4.4248 -1 2 0
3 2 10.0296 3.90186 2.62775 0 0 0
156 1 7.37403 0.776226 1.79244 1 1 0
65 1 8.43165 1.17638 4.14572 0 0 1
47 2 10.55 0.764621 4.0804 0 0 1
184 1 10.483 5.06037 1.15772 1 1 -1
53 2 7.32984 2.51451 0.408158 1 0 1
149 1 11.526 3.00179 1.7944 -1 2 0
52 2 13.2167 3.8409 4.67963 0 0 -1
139 1 10.7448 2.49578 4.17633 -1 0 1
76 1 14.429 4.96478 3.98409 0 0 1
112 1 13.6649 2.79069 3.2071 1 0 1
141 1 11.5657 4.58272 4.74484 -1 0 1
43 2 15.0199 1.29334 3.26872 -1 1 1
152 1 14.3691 1.01098 1.53662 0 2 0
124 1 11.9246 0.25403 2.76105 -1 0 1
23 2 12.4939 1.38676 1.66359 0 1 1
123 1 12.339 0.41492 4.90942 -1 -1 -1
91 1 0.561198 6.14127 2.91184 1 0 0
17 2 15.9232 5.90862 4.6895 -1 0 0
108 1 11.7376 9.89726 1.47826 -1 0 -1
129 1 3.41755 15.9269 4.12134 0 0 -1
9 2 4.26393 14.0945 3.84171 0 -1 0
187 1 2.40061 13.6728 2.97991 -1 -1 1
29 2 0.876266 14.3988 3.56345 0 0 1
31 2 7.94595 15.5734 5.19742 0 0 0
27 2 5.97491 15.3373 1.18641 1 -1 0
87 1 7.21421 14.0693 0.286942 0 -1 0
146 1 9.78615 15.0663 4.58003 0 1 0
151 1 9.81299 11.3454 3.31367 0 1 2
180 1 5.48841 14.253 2.51021 1 0 0
75 1 7.86513 13.6306 4.66049 0 -1 0
61 2 9.59944 12.7798 4.95301 -2 -1 1
119 1 6.10614 15.9209 4.73927 -1 0 0
84 1 9.51981 11.4291 0.485814 0 0 2
82 1 15.4267 13.8152 1.97741 0 -1 0
25 2 10.8157 11.5928 1.61593 0 0 -1
24 2 15.8902 14.0052 0.329164 -1 0 0
93 1 11.49 13.1775 2.25967 0 -1 1
16 2 12.7023 14.511 2.55602 0 -1 0
143 1 12.8199 15.1433 0.860277 0 0 1
172 1 14.1348 15.5714 3.56104 -1 0 0
189 1 3.77915 2.1844 6.47253 1 2 1
6 2 4.17405 1.74803 8.23522 1 1 0
40 2 0.702694 2.53874 6.18212 1 1 0
121 1 1.10018 4.44535 5.44609 1 1 1
144 1 4.09684 0.259323 9.23785 0 0 1
103 1 1.55328 1.53118 7.97276 1 2 -1
101 1 4.50458 3.38953 9.21522 1 0 0
1 2 0.788015 2.22836 9.3556 0 1 -2
81 1 2.4893 2.00775 10.6666 1 0 0
7 2 0.129708 5.09673 10.4791 0 1 0
83 1 9.53243 4.46437 6.33325 0 1 1
148 1 6.47599 2.50671 5.97552 1 1 1
92 1 7.17295 0.942991 9.91696 1 0 2
170 1 8.04299 2.89241 8.04997 1 2 0
37 2 7.91251 3.82997 6.32952 0 1 0
30 2 8.76425 1.70832 9.35389 0 1 -1
136 1 10.5864 2.04675 10.6234 0 1 -1
179 1 10.0636 1.16525 8.04765 2 1 2
106 1 13.3114 3.95916 6.49252 0 0 0
8 2 11.3392 4.72314 6.57481 0 0 1
154 1 15.0936 1.25843 5.43042 0 0 2
26 2 13.6586 3.03522 8.38679 -1 1 0
165 1 12.593 1.54472 8.55113 -1 0 1
138 1 14.9957 1.95436 7.44269 -1 2 -2
110 1 13.6329 5.32836 8.57985 -1 0 0
35 2 11.4463 0.130868 9.39509 -1 0 -2
174 1 15.8834 3.82 9.26156 -1 0 0
74 1 13.3937 3.02995 10.5731 -1 0 0
169 1 10.0951 8.40711 8.83863 1 0 0
57 2 9.73893 10.14 9.25343 1 0 0
55 2 14.4644 6.64576 7.70157 -1 0 0
79 1 15.8891 6.47095 9.32496 -1 0 -1
161 1 15.1569 6.74117 5.90853 0 0 0
94 1 10.9428 5.69135 8.27737 -1 1 0
178 1 12.5757 7.20994 6.9486 -1 0 1
45 2 11.4704 7.03972 9.13464 0 0 0
64 1 13.0431 7.56336 9.80725 0 -1 1
166 1 1.20402 14.3449 5.38367 1 1 1
186 1 4.96595 15.9415 6.85317 2 -1 2
111 1 1.2978 15.0374 8.48799 -1 -2 2
142 1 4.74544 13.5021 5.4378 0 -1 0
41 2 2.27606 14.8302 6.84514 0 -1 -1
181 1 3.80484 13.9722 8.01908 0 -1 1
49 2 3.80945 14.4535 9.73553 1 -1 -1
120 1 0.425337 13.4999 10.0616 1 -1 -1
19 2 5.68892 14.2668 7.31556 1 0 0
135 1 7.36168 15.3227 7.25772 1 -1 1
21 2 8.64488 13.0489 8.53873 0 -1 1
133 1 6.72118 13.249 8.4844 0 -1 0
86 1 8.58138 11.1683 8.32684 0 -1 0
99 1 9.47539 13.1919 6.8729 -1 0 0
140 1 8.63508 13.321 10.267 1 0 -1
118 1 10.2617 15.338 10.4359 0 1 -1
134 1 11.5125 12.2455 5.35953 -1 0 1
163 1 14.6467 15.1039 7.07357 -1 0 -1
20 2 12.1058 12.8266 6.95554 0 -1 1
54 2 13.7397 15.7876 5.7422 -1 0 0
72 1 12.9666 14.018 6.03348 -1 -1 0
153 1 13.8306 12.6641 8.08322 -1 -1 0
11 2 15.2945 14.2271 8.70787 0 -1 2
107 1 13.9567 13.7205 10.1062 0 0 0
157 1 11.1998 11.4327 8.8996 -1 0 0
173 1 13.382 11.0352 10.5864 0 1 1
42 2 12.7142 12.3709 9.7209 0 -1 0
69 1 11.8 14.035 8.47009 0 -1 0
125 1 0.632332 4.61291 15.8809 0 1 -1
162 1 0.17944 1.1087 10.699 0 0 -1
14 2 3.51389 3.5523 11.0873 0 0 0
50 2 2.27866 0.218789 11.9521 0 0 -1
128 1 0.0487149 4.70201 12.3594 1 0 0
104 1 1.58294 0.877525 13.5922 1 -1 -1
175 1 1.91492 4.35945 10.7093 0 1 -1
71 1 5.34611 3.58947 11.8973 0 1 0
95 1 6.48698 3.05356 15.0337 0 1 -1
70 1 6.22842 1.03109 12.8563 0 0 0
48 2 6.56902 2.75248 13.0504 0 0 0
67 1 8.42988 3.34045 12.5728 0 1 0
60 2 10.1776 3.45467 12.9622 0 2 0
127 1 7.99601 1.1995 15.1008 0 -1 0
51 2 9.2279 0.0745021 14.5233 -1 0 0
102 1 10.3734 2.00753 14.4805 1 0 1
80 1 10.6015 4.80657 14.1576 0 1 0
34 2 15.8431 4.14012 14.0874 0 1 0
113 1 13.9382 4.7759 14.0835 -1 0 0
185 1 15.6345 2.24761 14.3397 -1 1 0
32 2 15.7545 0.545238 13.9884 0 0 0
126 1 13.9168 1.03772 13.2628 -1 0 -1
10 2 12.5912 1.674 11.7669 0 1 1
158 1 11.8008 3.52883 12.3181 0 1 1
56 2 12.8037 4.93 12.7546 -1 1 0
117 1 12.6503 0.0763408 10.9698 -1 1 0
78 1 10.1247 10.0086 11.1916 -1 -1 0
15 2 13.6267 7.57533 11.5621 0 0 0
167 1 15.3924 8.56004 11.622 1 1 0
137 1 14.0964 5.63092 11.1155 0 1 -1
115 1 12.9648 9.19636 12.1354 0 -1 1
36 2 10.7309 5.89347 15.6649 0 1 0
168 1 10.9448 7.58921 15.1509 0 1 -1
105 1 12.2623 6.53707 12.3479 0 1 0
12 2 12.0633 9.40593 15.7689 0 1 0
116 1 14.1141 9.35059 15.5441 1 0 1
97 1 11.1526 10.647 14.4504 0 -2 0
13 2 14.7049 10.2386 11.6229 -1 0 0
73 1 4.74529 14.5718 15.7052 0 0 0
171 1 1.48705 14.0363 15.6625 0 0 -1
130 1 4.48072 12.0772 14.7668 1 0 1
98 1 0.120399 11.4582 11.5261 1 0 0
46 2 2.65386 12.5729 14.8945 1 1 0
100 1 2.28159 14.4385 11.2334 1 0 -1
62 2 0.87307 13.2054 11.6919 0 -1 0
77 1 2.00067 13.293 13.172 0 -1 0
188 1 1.32304 11.1123 15.2424 0 0 1
132 1 5.31534 14.7996 10.8458 0 0 -1
28 2 6.21243 12.9025 15.2223 -1 -1 -2
44 2 9.19853 12.404 14.8464 0 0 0
38 2 6.7795 15.9637 11.5515 1 0 -1
89 1 7.51368 11.7516 14.357 0 0 -1
159 1 9.65434 12.2141 12.5296 0 0 0
66 1 8.94939 14.0624 13.7966 0 0 -2
96 1 8.65782 15.6433 12.302 1 -1 -1
2 2 9.44371 14.0208 11.8586 0 -1 0
183 1 14.8839 12.5132 15.8532 0 -1 0
147 1 15.4946 15.0875 14.9647 0 0 -1
145 1 15.5055 14.2473 12.6377 1 0 -2
182 1 11.7175 13.1045 11.4196 -1 0 1
63 2 11.2364 10.8015 12.5295 0 0 1
150 1 11.0869 15.472 14.4713 0 -2 1
5 2 13.8097 14.1743 11.971 0 0 0
68 1 14.4245 10.9057 13.263 0 -1 0
85 1 13.5459 14.1576 13.7912 0 0 0
33 2 15.3677 10.9328 14.9717 0 -1 0
176 1 11.1206 12.8327 15.3635 -1 0 -2
39 2 12.3853 14.4161 15.0995 -1 -1 0
ITEM: TIMESTEP
10000
ITEM: NUMBER OF ATOMS
189
ITEM: BOX BOUNDS pp pp pp
1.4493277404258702e+00 1.4550672259574144e+01
1.4493277404258702e+00 1.4550672259574144e+01
1.4493277404258702e+00 1.4550672259574144e+01
ITEM: ATOMS id type x y z ix iy iz
58 2 4.92085 6.00522 4.28377 1 1 2
114 1 7.22071 4.66356 5.63137 1 0 0
131 1 6.21765 7.84066 5.91764 0 1 -1
22 2 6.06927 3.35914 6.49522 0 0 0
121 1 4.252 4.58776 5.2645 1 1 1
41 2 2.6955 1.69827 6.9544 0 0 -1
125 1 4.33781 7.74505 4.02661 0 1 0
6 2 3.59352 4.86856 6.88139 1 1 0
155 1 2.64652 1.93643 4.55144 1 1 -1
122 1 2.73203 6.05191 3.8115 0 -1 1
4 2 6.92594 3.20681 2.74123 1 1 -1
189 1 6.46394 4.66644 7.95576 1 2 1
149 1 5.59131 4.95606 2.84626 0 2 0
37 2 6.40383 6.76056 7.76388 0 1 0
129 1 5.54722 2.53559 4.22404 0 1 -1
43 2 1.84415 3.92739 3.95441 0 1 1
148 1 9.53061 4.64448 6.87128 1 1 1
29 2 4.22573 14.4374 3.40947 0 0 1
137 1 2.69379 3.87161 2.45482 1 1 0
140 1 7.39811 2.02744 7.12115 1 1 -1
152 1 2.22717 8.74391 2.64248 1 1 0
111 1 4.2823 2.91788 7.04617 -1 -1 2
59 2 8.92701 5.04946 5.05326 0 0 1
181 1 8.51381 3.61557 3.38851 0 0 1
24 2 2.15761 7.84657 4.32841 0 0 0
91 1 2.2478 3.63058 6.21474 1 0 0
31 2 9.51499 1.67271 3.39045 0 1 0
65 1 10.7941 4.99737 4.38099 0 0 1
109 1 8.23046 6.50057 7.98894 -1 2 0
3 2 9.81185 7.57548 7.28695 0 0 0
76 1 14.0778 14.1349 6.36781 0 -1 1
141 1 9.25069 6.96965 5.5951 -1 0 1
54 2 12.4889 1.47297 7.54335 -1 1 0
127 1 13.2875 2.88511 4.17272 0 -1 1
108 1 7.96016 6.32468 3.5821 -1 0 -1
158 1 13.3764 5.15577 4.96823 0 1 2
56 2 11.8341 4.84856 3.11181 -1 1 1
85 1 10.8901 6.17858 2.33267 0 0 1
154 1 12.6436 3.37381 7.59018 0 0 2
135 1 9.52468 14.466 5.17756 1 -1 1
178 1 13.2028 7.92679 4.36111 -1 0 1
150 1 10.476 2.89277 2.23686 0 -1 2
93 1 11.6381 8.96884 6.50719 0 -1 1
166 1 3.12183 12.8458 6.5957 1 1 1
163 1 3.9763 9.76697 6.13494 0 0 -1
9 2 5.35521 9.25137 4.84907 0 -1 0
187 1 5.08291 13.0098 4.54049 -1 -1 1
142 1 4.99212 10.1546 3.1977 0 -1 0
19 2 6.88524 12.3183 3.94737 1 0 0
133 1 4.60814 6.44235 6.75807 0 -1 0
75 1 5.88198 12.5631 2.27685 0 -1 0
82 1 3.33275 12.5973 2.90415 1 -1 0
62 2 3.07844 9.01886 7.52257 0 -1 0
179 1 7.34101 12.8751 6.61247 2 0 2
21 2 8.247 11.0839 6.65163 0 -1 1
153 1 2.44594 8.04579 6.39496 0 -1 0
33 2 3.23754 8.57211 14.2759 1 -1 0
49 2 5.14247 12.3821 6.49982 1 -1 -1
183 1 2.16087 10.7753 14.5279 1 -1 0
83 1 6.16761 11.0595 5.34229 0 1 1
63 2 4.52159 11.5325 2.07341 0 0 2
42 2 14.3225 11.985 6.1443 0 -1 0
30 2 8.90892 14.3581 7.67487 0 0 -1
28 2 7.71479 13.054 13.809 -1 -1 -2
112 1 13.4566 14.1699 2.24226 1 -1 1
151 1 8.76799 9.1918 6.16233 0 1 2
61 2 8.58185 8.322 4.54612 -2 -1 1
47 2 13.4512 14.2874 4.2823 0 -1 1
84 1 7.60786 9.32216 3.42046 0 0 2
139 1 7.68599 14.149 3.40637 -1 -1 1
99 1 8.67321 11.6091 4.91573 -1 0 0
147 1 11.5349 11.5349 12.5919 0 0 -1
17 2 13.0879 7.83298 6.40838 -1 0 0
123 1 11.9437 13.6455 5.43852 -1 -2 -1
124 1 11.3027 11.3959 5.63749 -1 -1 1
25 2 12.0491 9.70723 4.40176 0 0 -1
16 2 1.49203 12.3992 2.20764 1 -1 0
143 1 10.7536 13.0885 3.18525 0 0 1
134 1 9.89175 12.8098 7.14113 -1 0 1
72 1 12.4087 10.7075 2.85469 -1 -1 0
44 2 10.1609 12.6139 4.74097 0 0 1
176 1 10.2932 10.6976 1.54356 -1 0 -1
117 1 14.3442 12.7419 4.13583 -1 0 0
184 1 10.2588 8.90703 4.13415 1 1 -1
69 1 13.5134 10.4359 5.56345 0 -1 0
86 1 9.54226 10.7145 8.23146 0 -1 0
20 2 11.1176 11.4496 7.53067 0 -1 1
136 1 13.0798 12.4415 7.5805 0 0 -1
68 1 9.39209 8.47743 14.2634 0 -1 0
186 1 2.61068 5.33338 9.04475 2 0 2
162 1 3.11384 1.44524 14.108 0 0 -1
119 1 7.36392 3.8601 14.2263 -1 1 -1
34 2 2.01722 5.15588 1.44999 1 1 1
18 2 5.60758 5.9366 13.7916 1 1 -1
116 1 4.41334 7.15517 1.5071 2 0 2
144 1 6.06597 2.498 9.63827 0 0 1
27 2 6.75916 2.79285 12.7344 1 0 -1
177 1 6.02985 6.90872 11.9453 -1 -1 -2
53 2 4.63123 7.86542 10.1393 1 0 0
101 1 5.27958 6.27638 9.35629 1 0 0
81 1 6.25919 4.55827 12.0909 1 0 0
14 2 3.36614 4.9441 11.2331 0 0 0
71 1 3.86959 5.0519 12.931 0 1 0
48 2 6.02328 4.46952 9.84316 0 0 0
73 1 7.75325 14.0958 12.2726 0 0 0
138 1 4.46217 3.9275 10.3492 0 2 -2
113 1 2.41851 6.52754 11.1269 0 0 0
67 1 5.40477 8.7528 8.74231 0 1 0
87 1 5.91299 1.98272 14.2606 0 0 -1
90 1 14.4006 4.63642 12.7146 0 1 -1
70 1 8.73697 3.27547 12.6551 0 0 0
7 2 13.9353 7.59975 12.2161 -1 1 0
170 1 7.95995 5.01668 10.2421 1 2 0
92 1 9.21279 3.40337 9.17589 1 0 2
45 2 7.66235 7.95996 12.4025 0 0 0
120 1 1.94949 1.9895 11.694 1 0 -1
168 1 1.84255 6.8413 13.8466 1 1 -1
156 1 13.5671 4.78795 2.45079 1 1 0
26 2 12.202 4.91718 6.69621 -1 1 0
175 1 13.4873 5.40212 10.2156 -1 1 -1
36 2 10.3579 2.86714 13.4567 0 1 0
95 1 10.2723 5.84727 9.58892 0 1 -1
161 1 13.7277 6.4882 7.52289 0 0 0
160 1 10.3481 4.91232 13.6347 1 1 -1
1 2 12.8858 4.3771 11.4222 -1 1 -2
52 2 8.98651 5.01073 8.51645 0 0 -1
128 1 12.0453 6.5898 12.0563 0 0 0
106 1 9.08545 6.89013 11.8408 0 0 0
174 1 13.5362 8.14531 10.2424 -1 0 0
55 2 10.8156 7.1668 10.8372 -1 0 0
165 1 11.3678 6.45883 7.09545 -1 0 1
74 1 10.9432 4.15 11.0211 -1 0 0
60 2 9.04657 5.01749 11.8454 0 2 0
80 1 7.69279 6.40227 13.9063 0 1 0
105 1 10.6932 1.61372 8.12816 0 1 0
12 2 8.9118 5.78934 1.79057 0 1 1
185 1 12.2192 3.12429 12.743 -1 1 0
35 2 11.0275 2.65875 9.78723 -1 0 -2
126 1 13.3211 2.99635 9.8956 -1 0 -1
118 1 6.93514 11.1409 7.92511 0 1 -1
77 1 4.03236 10.5947 8.20817 0 -1 0
107 1 13.9739 9.08093 7.61966 0 0 0
110 1 1.79167 14.5366 8.48683 0 -1 0
38 2 5.88269 13.7298 9.83455 1 0 -1
88 1 14.2667 12.8439 13.3532 -1 0 -2
171 1 1.69742 9.35337 12.5337 0 0 -1
98 1 7.81353 11.2889 10.6213 1 0 0
40 2 14.3308 6.49844 9.20382 0 1 0
50 2 3.56758 14.2454 12.4506 0 -1 -1
103 1 2.76937 7.95539 8.95174 1 2 -1
97 1 4.45883 10.0018 13.8972 0 -2 0
159 1 5.37756 9.5311 10.9984 0 0 0
146 1 3.83732 12.3258 12.9917 0 1 -1
132 1 4.77934 12.9892 8.33218 0 0 -1
167 1 2.87549 11.0277 10.9381 2 1 0
180 1 5.32898 1.77888 11.829 1 1 -1
104 1 3.09508 13.4413 10.6357 1 -2 -1
130 1 5.4472 11.8132 10.4849 1 0 1
46 2 3.17782 11.9687 9.44466 1 1 0
100 1 6.45819 12.0034 12.8887 1 0 -1
2 2 4.9985 10.7499 12.234 0 -1 0
89 1 7.70996 13.6324 9.17504 0 0 -1
57 2 6.40308 10.3059 9.49781 1 0 0
32 2 14.2467 10.9997 12.2928 0 -1 0
188 1 1.89515 10.851 8.67229 0 0 1
169 1 7.2439 9.39995 13.4815 1 0 0
172 1 11.5791 13.9997 13.8726 -1 0 -1
10 2 10.6861 12.4718 14.1422 0 0 1
96 1 10.5582 8.44776 9.53114 1 -1 -1
102 1 9.24147 13.9277 14.2519 1 -1 1
51 2 8.53067 12.9789 11.1548 -1 -1 0
8 2 9.7978 10.2775 10.1725 0 0 1
79 1 10.329 9.03499 11.9151 -1 0 -1
115 1 12.5723 9.17996 12.4723 0 -1 1
11 2 14.3463 14.5286 10.2315 0 -1 2
78 1 10.198 12.0141 10.6183 -1 -1 0
23 2 13.4049 1.5853 13.4672 0 1 0
64 1 11.8561 10.6217 9.37028 0 -1 1
94 1 7.77721 8.97817 10.117 -1 1 0
13 2 13.5687 9.85723 9.37409 -1 0 0
164 1 12.4005 13.8407 9.37693 1 0 -2
66 1 8.27905 11.8521 2.48272 0 0 -1
39 2 8.34815 10.0356 1.79436 -1 -1 1
157 1 10.3533 14.4197 11.1853 -1 0 0
173 1 13.437 11.8504 10.6956 0 1 1
15 2 11.177 9.69686 13.4362 0 0 0
145 1 12.9394 14.0104 11.5855 1 0 -2
182 1 9.09922 12.1528 12.8247 -1 0 1
5 2 11.7095 13.0723 10.883 0 0 0
ITEM: TIMESTEP
20000
ITEM: NUMBER OF ATOMS
189
ITEM: BOX BOUNDS pp pp pp
1.1145550418206112e+00 1.4885444958179280e+01
1.1145550418206112e+00 1.4885444958179280e+01
1.1145550418206112e+00 1.4885444958179280e+01
ITEM: ATOMS id type x y z ix iy iz
6 2 2.83474 5.90531 6.10099 1 1 0
24 2 1.97929 1.70472 1.92633 0 0 0
91 1 6.32665 7.32701 7.71052 1 0 0
187 1 2.4608 4.60085 4.53664 -1 0 1
148 1 4.53717 2.37354 6.11743 1 1 1
164 1 14.2713 3.84305 6.96884 1 1 -2
41 2 1.43104 2.21695 7.54542 0 0 -1
31 2 3.69946 1.53005 4.75271 0 1 0
151 1 7.01387 6.44178 3.30832 0 1 2
152 1 2.22476 5.20525 2.50204 1 1 0
61 2 5.9579 7.21833 1.9237 -2 -1 1
129 1 7.0704 3.67185 5.13769 0 1 -1
83 1 3.10372 2.12302 8.36356 0 2 1
112 1 2.00429 1.54216 3.67769 2 0 1
184 1 8.07457 8.72923 1.63566 1 1 -1
59 2 7.82473 5.31135 4.74655 0 0 1
22 2 7.62534 3.08624 6.64199 0 0 0
153 1 3.9978 7.37625 6.52177 0 -1 0
19 2 9.02358 1.2877 4.21845 1 1 0
125 1 1.53496 13.7967 1.52547 0 0 0
155 1 2.24151 1.74526 5.85366 1 1 -1
102 1 8.25054 6.85232 5.57921 1 -1 2
137 1 3.39447 7.1347 9.17841 1 1 -1
117 1 3.5033 2.50485 1.25509 0 1 0
113 1 4.45149 6.04566 14.8488 0 0 0
133 1 14.0635 5.65879 4.63984 -1 -1 0
110 1 13.6738 14.6143 6.93401 -1 -1 0
65 1 10.3257 2.00035 2.98113 0 0 1
3 2 7.93765 6.61093 8.42078 0 0 0
56 2 11.0464 3.88412 3.22251 -1 1 1
154 1 11.0149 4.25206 14.4482 0 0 1
26 2 14.6156 4.33978 3.57131 -1 1 0
76 1 13.5783 2.88854 4.23149 0 0 1
47 2 14.2228 1.27908 5.17488 0 0 1
165 1 9.43207 4.1715 4.18262 -1 0 1
147 1 13.0251 6.08739 14.2507 0 0 -1
178 1 12.6126 4.40731 2.72876 -1 0 1
32 2 13.2648 5.89441 6.21738 0 -1 1
161 1 11.6374 4.5289 6.00789 0 0 0
42 2 12.3708 14.7832 8.62744 0 -1 0
185 1 12.2043 2.3109 14.3606 -1 1 0
73 1 10.9223 2.07406 8.13904 0 1 0
12 2 10.8256 1.35884 1.27051 0 1 1
124 1 8.6694 8.35911 7.66262 -1 -1 1
69 1 1.90792 7.82067 4.98123 1 -1 0
143 1 12.5762 6.98357 8.20877 0 0 1
109 1 9.03134 4.48927 6.79248 -1 2 0
1 2 12.874 4.23454 14.487 -1 1 -2
35 2 10.3998 3.79025 7.89855 -1 0 -2
43 2 5.29438 1.50883 1.40807 0 1 1
166 1 3.54998 13.2064 5.63791 1 1 1
82 1 4.68345 1.44402 3.06692 1 0 0
104 1 4.20422 14.2135 13.7198 1 -2 -1
156 1 1.89347 10.5597 3.19333 2 0 0
8 2 2.95523 9.11821 5.94842 0 0 1
29 2 2.30538 12.3254 6.39719 0 0 1
114 1 7.24758 9.44086 4.39243 1 0 0
162 1 5.92962 12.4864 2.09327 0 -1 0
127 1 14.7675 13.0144 4.79161 0 -2 1
131 1 4.31959 10.4663 5.99732 0 1 -1
9 2 13.8512 7.43906 3.9239 -1 -1 0
49 2 8.37662 13.6469 6.39414 1 -1 -1
21 2 6.58227 11.4166 3.97159 0 -1 1
66 1 4.42591 7.35123 2.9189 0 0 -1
39 2 3.90891 9.79896 2.09296 -1 -1 1
72 1 1.7295 10.5544 5.83111 0 -1 0
89 1 6.79575 12.4412 5.52961 0 0 -1
88 1 5.12414 10.6026 3.17523 0 0 -1
23 2 14.6167 11.9622 1.19419 0 0 1
100 1 8.22717 11.5892 2.8033 1 0 0
163 1 1.44043 13.5727 10.6723 0 0 -1
96 1 7.22415 10.2017 6.95151 1 -1 -1
84 1 14.7896 7.14108 2.48727 -1 0 2
44 2 14.0365 11.0774 4.26348 0 0 1
105 1 12.4628 14.4599 4.20879 0 0 0
135 1 11.1047 13.2102 2.00838 1 -1 1
142 1 13.2167 9.21203 3.97231 -1 -1 0
179 1 7.49748 14.3407 3.32257 2 0 2
30 2 11.8784 12.7839 3.58729 0 0 -1
134 1 11.0259 10.1993 2.88662 -1 0 1
141 1 9.63384 9.05607 4.76707 -1 0 1
16 2 11.462 8.80519 5.04066 0 -1 0
25 2 8.02068 8.61316 5.85605 0 0 -1
10 2 9.20409 9.8921 2.64478 0 0 2
136 1 12.3283 11.5813 5.12734 0 0 -1
172 1 13.4163 12.1396 2.79172 -1 0 0
68 1 12.6692 7.52033 5.74116 0 -1 1
93 1 10.5725 10.1945 6.50704 0 -1 1
40 2 13.5609 8.79192 9.14749 0 1 0
101 1 8.26673 1.55267 5.71208 1 0 0
20 2 11.9072 11.4744 7.79876 0 -1 1
98 1 9.79971 13.4093 4.6456 1 0 0
36 2 11.7897 10.0794 14.7835 0 0 0
176 1 13.4007 13.1533 14.0968 -1 0 -2
64 1 9.01168 12.3178 7.34252 0 -1 1
108 1 6.92462 6.15336 9.90282 -1 0 -1
181 1 6.82244 14.7614 14.3816 0 -1 0
37 2 5.01634 6.25567 8.33755 0 1 0
119 1 6.14884 4.48606 7.58191 -1 1 -1
67 1 3.84509 5.01741 7.42955 0 1 0
149 1 5.86596 3.45699 1.15844 0 2 0
71 1 2.77501 3.97167 12.9502 0 1 0
48 2 4.14337 4.1033 14.252 0 0 0
189 1 8.04267 4.55803 12.2294 1 2 1
34 2 3.20308 4.12593 10.8886 1 1 0
50 2 4.71418 3.33067 7.95359 0 0 -1
170 1 4.96272 4.68126 12.4349 1 2 0
11 2 1.71258 6.32294 9.19684 1 0 2
121 1 1.30457 6.31484 7.17085 1 1 1
111 1 1.94636 6.11666 11.2936 -1 -1 2
52 2 6.3883 4.8729 11.3188 0 0 -1
2 2 7.47394 14.6667 12.4273 0 -1 0
145 1 4.69494 4.64691 9.8456 2 1 -2
116 1 2.75528 8.58083 1.30172 2 0 2
107 1 1.46776 4.28868 9.67166 1 1 0
80 1 6.99107 7.08269 13.977 0 1 0
58 2 2.9519 6.82834 1.99735 1 1 2
186 1 13.7541 6.97827 10.2686 1 0 2
85 1 13.8294 1.53929 12.1011 0 0 0
126 1 13.9975 1.98683 9.13358 -1 0 -1
122 1 11.8938 7.41859 3.42343 -1 -1 1
4 2 9.54735 4.22844 13.2807 1 1 -2
15 2 8.53647 8.09854 13.7793 0 0 0
106 1 11.7903 6.25586 12.0064 0 0 0
33 2 14.2557 6.07071 12.3313 0 -1 0
95 1 12.1586 4.56515 9.52738 0 1 -1
60 2 11.5756 6.40313 9.73071 0 2 0
90 1 14.5741 3.14422 1.54362 0 1 0
92 1 9.70048 6.55288 13.6557 1 0 2
160 1 9.14147 2.25815 13.0683 1 1 -1
74 1 13.7886 4.25072 12.3305 -1 0 0
79 1 10.0498 5.95335 8.4699 -1 0 -1
99 1 9.12713 3.3677 9.0958 -1 1 0
51 2 13.1098 3.38406 10.8872 -1 0 0
81 1 10.9984 3.52477 11.8737 1 0 0
144 1 10.8737 14.0713 13.1764 0 -1 1
188 1 11.7739 1.47856 10.6477 -1 1 1
38 2 9.88433 2.02677 10.8615 1 1 -1
7 2 11.3967 6.94366 13.9939 -1 1 0
132 1 2.19492 13.323 8.0964 0 0 -1
18 2 3.06665 9.70092 12.8948 1 1 -1
138 1 8.94947 9.1719 12.3633 0 2 -2
130 1 2.79206 2.07929 10.9842 1 1 1
103 1 6.23677 13.0329 7.88225 1 2 -1
97 1 4.54794 9.64633 14.0511 0 -2 0
146 1 3.99346 13.226 10.9196 0 1 -1
78 1 7.50243 1.34597 7.73728 -1 0 0
177 1 3.65171 10.8293 11.6094 -1 -1 -2
14 2 5.75483 11.3895 6.97162 0 0 0
63 2 2.43891 14.3637 12.3725 0 0 1
70 1 6.41966 2.50564 11.6248 0 0 0
62 2 2.95864 9.38803 9.7533 0 -1 0
118 1 3.89734 10.062 8.33055 0 1 -1
183 1 6.59809 13.0149 10.9671 1 -1 0
53 2 7.84862 10.3057 11.3875 1 0 0
167 1 6.2843 10.678 12.0959 2 1 0
46 2 5.13485 12.0357 11.6701 1 1 0
86 1 1.50625 8.38882 8.80729 0 -1 0
94 1 8.14586 10.1859 9.59488 -1 1 0
54 2 2.95589 14.4581 9.45452 0 0 0
159 1 2.96435 8.50466 11.8016 0 0 0
120 1 5.61039 2.03132 8.90332 1 0 -1
157 1 1.64493 12.6849 12.7502 0 0 0
173 1 2.17519 10.8437 14.3689 1 1 1
57 2 6.76468 14.4246 9.55763 1 0 0
123 1 11.9548 13.1472 8.68122 -1 -2 -1
28 2 7.49523 13.1702 1.85001 -1 -1 -1
77 1 1.44734 10.3511 10.5568 0 -1 0
115 1 12.5389 8.37247 14.4738 0 -1 1
158 1 10.4545 10.8335 9.18603 0 1 2
75 1 10.2558 11.1675 14.5884 0 -1 -1
168 1 11.507 8.30151 10.3707 0 1 -1
169 1 10.3947 8.66087 14.499 1 0 0
150 1 9.0129 13.9862 1.40766 0 -2 2
17 2 14.3802 12.0447 11.1348 -1 0 0
140 1 8.29959 14.7091 10.6532 1 0 -1
180 1 9.72483 11.386 11.7324 1 0 -1
174 1 12.7466 12.604 11.5669 -1 0 0
5 2 12.5103 14.1392 12.6624 0 0 0
175 1 12.6905 9.89143 7.00306 -1 1 -1
27 2 9.86433 12.6171 13.6774 1 -1 -1
139 1 8.01384 13.0383 12.8893 -1 -1 0
171 1 14.6861 7.62295 13.3745 -1 0 -1
87 1 13.6415 10.2602 1.32023 0 -1 0
128 1 12.833 10.5502 9.48044 0 0 0
55 2 9.2078 10.1496 7.98894 -1 0 0
45 2 11.2556 10.4653 11.0615 0 0 0
13 2 14.3176 8.48567 1.19536 -1 0 1
182 1 11.9388 10.2285 12.8372 -1 0 1
ITEM: TIMESTEP
30000
ITEM: NUMBER OF ATOMS
189
ITEM: BOX BOUNDS pp pp pp
1.2522045171342215e+00 1.4747795482865687e+01
1.2522045171342215e+00 1.4747795482865687e+01
1.2522045171342215e+00 1.4747795482865687e+01
ITEM: ATOMS id type x y z ix iy iz
6 2 1.86465 4.88587 7.47689 1 1 0
187 1 7.62168 3.75564 3.11993 -1 0 1
31 2 4.04772 2.98325 5.98604 0 1 0
152 1 5.18619 13.5242 3.28632 1 0 0
155 1 2.62675 2.28626 6.88686 1 1 -1
67 1 3.3026 4.79309 6.47579 0 1 0
58 2 3.60423 4.34923 2.84828 1 1 2
37 2 6.77214 6.9039 6.57302 0 1 0
189 1 4.50654 6.61143 2.02142 1 2 2
2 2 6.68159 3.03441 14.6602 0 0 0
112 1 5.70437 2.16842 5.20581 2 0 1
48 2 5.72803 7.31366 3.60718 0 0 1
82 1 7.47812 6.20072 4.89588 1 0 0
19 2 7.49178 2.46337 4.37387 1 1 0
178 1 14.7304 6.92305 2.43011 -1 0 1
133 1 2.67956 2.77741 2.65301 0 -1 0
125 1 4.40258 4.24569 4.30225 0 0 0
131 1 5.32782 7.74632 5.61293 0 1 -1
148 1 6.00302 4.42017 6.28251 1 1 1
22 2 6.76121 3.82138 7.8452 0 0 0
71 1 5.09687 4.15662 1.80132 0 1 1
74 1 5.72423 6.74865 13.2487 0 0 0
66 1 3.42401 14.5708 4.86816 0 -1 -1
117 1 9.46383 4.42457 4.4742 0 1 0
83 1 14.0758 3.53231 7.26874 -1 2 1
59 2 8.47831 5.48714 3.52864 0 0 1
26 2 13.9836 2.54271 3.08921 -1 1 0
41 2 12.2149 3.24374 7.13459 -1 0 -1
164 1 11.0818 4.98567 10.1154 1 1 -2
150 1 11.3546 5.73655 7.63822 0 -1 2
56 2 11.6602 4.85734 2.21289 -1 1 1
165 1 11.7774 4.12545 5.37354 -1 0 1
32 2 12.6814 6.59501 5.26078 0 -1 1
141 1 10.3201 6.77466 5.6839 -1 0 1
105 1 12.1957 6.34917 3.4169 0 1 0
121 1 14.3527 5.70887 6.24288 0 1 1
73 1 11.811 1.86489 5.58391 0 1 0
101 1 11.9939 3.10694 3.05078 1 0 0
30 2 10.6533 2.89176 4.50916 0 1 -1
122 1 9.84242 5.13517 1.85062 -1 -1 1
107 1 10.1684 3.47727 7.28836 0 1 0
35 2 9.90342 5.41349 6.8481 -1 0 -2
25 2 9.26822 8.43997 4.99361 0 0 -1
88 1 8.69811 2.35514 5.51007 0 1 -1
84 1 12.6335 9.483 6.79741 -1 0 2
129 1 7.99823 5.20082 7.04102 0 1 -1
175 1 8.02592 8.28937 6.6647 -1 1 -1
40 2 11.9802 6.50667 9.38178 0 1 0
130 1 2.56507 13.3665 8.37001 1 0 1
156 1 1.38896 14.4179 3.10258 2 0 0
114 1 6.68751 8.29704 2.27033 1 0 0
173 1 4.57602 8.82255 2.99545 1 1 2
184 1 4.89189 14.2739 6.87694 1 1 -1
8 2 2.99736 10.983 4.23022 0 0 1
21 2 2.13515 13.7765 6.65261 0 -1 1
39 2 5.63193 13.501 5.35421 -1 -1 1
72 1 2.30931 12.3517 3.41235 0 -1 0
136 1 4.57208 11.2123 3.29733 0 0 -1
24 2 3.18879 13.9871 3.06594 0 -1 0
75 1 7.82465 9.16521 13.8618 0 -1 -1
127 1 3.28666 12.0443 5.88337 1 -2 1
113 1 3.26361 9.62322 5.84547 0 0 1
100 1 7.44588 13.8164 4.94488 1 0 0
10 2 6.26449 10.4667 3.39709 0 0 2
96 1 6.3355 11.7284 5.3518 1 -1 -1
13 2 3.28013 8.09313 1.539 0 0 1
146 1 3.85682 13.5963 1.31273 0 1 0
76 1 13.9884 13.924 5.71754 0 -1 1
142 1 7.8379 9.6477 4.44974 -1 -1 0
50 2 8.95331 14.6434 6.94153 0 -1 -1
9 2 9.05501 8.56772 1.55698 -1 -1 0
169 1 9.23834 7.37555 3.32739 1 0 1
49 2 8.11563 11.5422 5.95746 1 -1 -1
120 1 8.05575 12.7417 7.51507 1 -1 -1
153 1 14.2985 9.62133 3.94858 -1 -1 0
44 2 13.6909 8.97434 2.38207 0 0 1
132 1 12.8182 11.804 3.7887 -1 0 -1
89 1 9.631 12.0017 4.52313 0 0 -1
47 2 13.9029 13.0806 2.76659 0 -1 1
68 1 10.9494 9.15905 4.74101 0 -1 1
86 1 10.1436 12.8717 1.8151 -1 -1 0
185 1 12.3066 14.2222 2.66536 -1 0 1
69 1 12.9943 10.7843 14.6119 0 -1 -1
28 2 8.73497 13.2017 3.28182 -1 -1 -1
16 2 12.2337 10.4394 5.1353 0 -1 0
93 1 7.23888 11.9577 2.44316 0 -1 1
98 1 9.69015 1.6429 3.12248 1 1 0
17 2 12.1208 13.7083 6.28218 -1 0 0
147 1 11.7583 9.32445 2.52937 0 0 0
65 1 12.4369 5.89112 14.4274 0 0 0
123 1 12.5599 11.9995 6.50899 -1 -2 -1
36 2 11.2472 11.1841 1.59404 0 0 1
157 1 13.7481 13.8894 8.33927 -1 0 0
170 1 7.56679 1.68662 2.28592 1 2 1
179 1 7.93296 3.78473 13.7753 2 1 1
119 1 5.35948 2.63048 8.46772 -1 1 -1
91 1 5.60806 7.02705 8.45802 1 0 0
149 1 5.10593 5.57951 10.7377 0 2 -1
137 1 2.61867 4.31903 14.0403 1 1 -1
145 1 3.28013 1.83119 10.1009 2 1 -2
4 2 8.96872 2.46193 10.0738 1 1 -2
63 2 4.14726 5.69658 12.3901 0 1 1
3 2 4.71043 3.66817 10.1099 0 0 0
183 1 3.96096 3.69197 11.8039 1 0 0
77 1 5.69587 1.79626 14.0963 0 0 0
81 1 6.48534 4.71607 9.242 1 0 0
118 1 3.40787 4.69049 9.03951 0 1 -1
188 1 2.12728 1.69765 13.1055 0 1 1
108 1 14.4613 5.22816 9.15672 -2 0 -1
140 1 8.34633 2.68934 8.29395 1 1 -1
34 2 1.50936 14.544 9.33935 1 0 0
138 1 7.77075 5.8608 1.76195 0 2 -1
161 1 8.19907 7.05292 8.72326 0 0 0
15 2 7.03947 6.32276 10.2273 0 0 0
14 2 4.05951 7.04016 9.49181 0 0 0
54 2 4.44322 1.80451 12.253 0 1 0
90 1 13.8458 4.36658 2.33734 0 1 0
109 1 11.0469 3.58092 14.1768 -1 2 -1
33 2 14.3414 6.19803 10.8805 0 -1 0
1 2 14.3359 5.8847 14.4702 -1 1 -2
110 1 11.7557 1.93605 8.1278 -1 0 0
61 2 8.71441 5.47381 13.5246 -2 -1 0
92 1 10.4062 5.29514 12.8078 1 0 2
87 1 9.58199 7.14567 13.8805 0 -1 -1
154 1 14.4228 5.46145 12.733 0 0 1
135 1 9.22265 3.8 11.4666 1 0 0
111 1 12.5881 6.86984 11.3095 -2 -1 2
80 1 7.85409 6.50114 12.0484 0 1 0
95 1 12.8716 3.36256 12.2346 0 1 -1
51 2 14.5687 3.17612 12.9631 -1 0 0
7 2 11.0969 3.72434 12.2617 -1 1 0
143 1 2.79867 6.70048 14.0029 1 0 1
139 1 10.4862 14.5614 13.3816 -1 -1 0
180 1 10.5345 1.60695 10.637 1 1 -1
174 1 13.653 1.87125 10.3281 -1 1 0
42 2 12.2528 14.4969 9.58654 0 -1 0
166 1 4.61916 13.2302 10.3413 1 1 1
29 2 3.8235 9.53625 7.57986 0 0 1
186 1 3.00455 8.36624 8.96072 2 0 2
52 2 4.60902 14.4204 8.70238 0 -1 -1
124 1 5.70447 9.77431 7.74639 -1 -1 1
43 2 5.72666 13.4865 14.5156 0 0 0
176 1 2.6796 6.56767 11.4382 0 0 -2
102 1 7.3737 11.3271 11.8113 1 -1 2
55 2 6.13216 10.3014 9.52833 -1 0 0
160 1 7.61143 13.6605 11.7628 1 0 -1
11 2 6.22197 8.36531 14.1197 1 0 2
171 1 1.66157 9.21248 1.33693 0 0 0
162 1 4.91939 13.6921 12.7433 0 -1 -1
104 1 5.70081 11.1163 14.1767 1 -2 -1
70 1 5.53607 2.30046 10.9203 0 0 0
116 1 5.85286 8.71946 10.4373 2 0 1
85 1 2.28932 11.72 13.9261 1 -1 0
103 1 3.7462 11.0862 8.94697 1 2 -1
181 1 4.80459 10.9693 11.5483 0 -1 0
97 1 4.55451 9.0365 14.0877 0 -2 0
62 2 2.5074 11.7853 9.8823 0 -1 0
46 2 3.94157 11.0051 13.362 1 1 0
159 1 2.22152 10.2149 12.1787 0 0 0
57 2 5.96614 12.6374 11.4187 1 0 0
163 1 1.68384 13.4377 10.869 0 0 -1
23 2 14.2487 10.2667 13.1634 0 0 0
79 1 6.80893 11.9603 9.45025 -1 0 -1
106 1 10.8357 7.8804 8.40295 0 0 0
60 2 11.4142 6.94382 13.0842 0 2 0
177 1 9.70296 14.0846 8.60433 -1 -1 -2
78 1 10.2236 13.4237 6.45876 -1 -1 0
99 1 11.5485 10.5104 9.43886 -1 0 0
18 2 7.58895 11.0549 13.7018 1 1 -1
151 1 9.34628 10.3792 1.84265 0 1 2
12 2 10.7638 1.35829 1.52566 0 1 1
115 1 13.1578 8.48179 14.0025 0 -1 1
144 1 13.7952 13.8685 14.4138 0 -1 1
53 2 8.91003 11.5536 9.35333 1 0 0
94 1 7.47096 12.7416 13.9182 -1 1 0
64 1 9.1735 10.5975 7.64135 0 -1 1
20 2 9.005 8.59686 8.5023 0 -1 1
38 2 9.40601 13.559 12.1916 1 0 -1
167 1 9.92739 12.1581 10.9083 2 1 0
134 1 10.559 11.0938 13.1412 -1 0 0
126 1 14.5435 11.0735 9.11373 -1 -1 -1
172 1 13.0916 12.1141 12.6164 -1 0 -1
158 1 11.978 12.9514 10.528 0 1 2
168 1 8.18661 9.72516 9.61759 0 1 -1
5 2 1.4508 13.4448 12.9733 1 0 0
27 2 11.6589 11.424 11.5055 1 -1 -1
128 1 13.4351 8.12693 8.94892 0 0 0
45 2 12.8807 9.67465 8.5537 0 0 0
182 1 12.9884 9.73088 11.5095 -1 0 1
ITEM: TIMESTEP
40000
ITEM: NUMBER OF ATOMS
189
ITEM: BOX BOUNDS pp pp pp
1.2202869656029955e+00 1.4779713034396940e+01
1.2202869656029955e+00 1.4779713034396940e+01
1.2202869656029955e+00 1.4779713034396940e+01
ITEM: ATOMS id type x y z ix iy iz
31 2 4.0943 3.39671 5.61338 0 1 0
155 1 3.19043 4.79905 4.8311 1 1 -1
67 1 14.2467 5.13933 4.98321 -1 1 0
58 2 5.16843 5.52386 3.09488 1 1 2
137 1 3.33115 5.60758 2.37797 1 1 0
13 2 1.91053 5.62869 3.59922 0 0 1
71 1 6.96498 5.58945 4.10482 0 1 1
82 1 4.57599 7.38206 3.27474 1 0 0
24 2 7.35706 2.24296 5.45835 0 0 0
170 1 5.65538 4.21403 5.87486 1 2 1
30 2 5.9555 6.08514 5.98087 0 1 -1
127 1 7.69707 2.67128 7.48779 1 -1 1
118 1 5.3312 3.64778 3.38612 0 1 0
2 2 5.07186 1.90891 3.2131 0 0 1
105 1 7.20922 6.14402 7.3934 0 1 0
136 1 5.78766 1.48924 4.87592 0 1 -1
154 1 14.7425 6.86198 2.15103 0 0 2
161 1 6.45276 8.03498 5.22616 0 0 0
124 1 4.31565 7.34494 6.05784 -1 -1 1
131 1 2.74077 2.54962 6.76259 0 1 -1
108 1 13.0841 3.61698 6.75148 -2 0 -1
6 2 14.033 5.4365 6.70305 0 1 0
100 1 8.38277 1.28717 4.13081 1 1 0
19 2 9.94536 3.36351 14.7084 1 1 -1
178 1 13.4217 4.85015 2.40362 -1 0 1
66 1 13.1801 2.44295 3.54621 -1 0 -1
81 1 10.7087 1.47744 7.85113 1 0 0
112 1 9.08263 6.37045 2.89329 2 0 1
41 2 11.8993 2.18771 6.6254 -1 0 -1
56 2 12.4707 4.21448 3.95463 -1 1 1
165 1 10.8134 2.59008 4.99404 -1 0 1
101 1 12.2914 2.27697 14.1869 1 0 -1
78 1 8.54972 3.8659 4.91918 -1 0 0
50 2 10.0559 1.55885 3.56001 0 0 -1
110 1 12.3821 6.47793 6.65297 -1 0 0
65 1 11.3331 5.53678 4.50174 0 0 1
15 2 11.2392 7.41046 5.50138 0 0 0
164 1 9.2434 7.03621 5.34314 1 1 -2
60 2 9.45708 5.32944 4.43012 0 2 1
139 1 10.9882 3.90306 2.68551 -1 0 1
33 2 13.0007 6.3127 14.4051 0 -1 0
169 1 8.34638 4.08402 1.62933 1 0 1
147 1 12.4485 7.89338 1.23469 0 0 0
83 1 4.19576 14.7036 8.19403 0 1 1
17 2 2.70573 13.5429 4.34572 0 0 0