LAMMPS (22 Jul 2025 - Update 2)
# TIO2 MELT QUENCH

variable runString string hot_npt

units             real
dimension         3
atom_style        charge

boundary p p p
read_data         hot_nvt.data
Reading data file ...
  orthogonal box = (0 0 0) to (16 16 16)
  1 by 1 by 1 MPI processor grid
  reading atoms ...
  189 atoms
  reading velocities ...
  189 velocities
  read_data CPU = 0.001 seconds

pair_style buck/coul/long 10.0
pair_coeff 2 2 717654 0.154 120.997
pair_coeff 1 2 391053 0.194 290.392
pair_coeff 1 1 271719 0.234 696.941

kspace_style      ewald 1.0e-4

#fix               F1 all nve
fix               F2 all npt temp 3000.0 3000.0 $(100*dt) iso 0 0 $(100*dt)
fix               F2 all npt temp 3000.0 3000.0 100 iso 0 0 $(100*dt)
fix               F2 all npt temp 3000.0 3000.0 100 iso 0 0 100
#fix               F3 all nvt temp 3000.0 3000.0 $(100*dt)
#fix               F4 all temp/rescale 1 10.0 10.0 5.0 1.0

#velocity          all create 800.0 97475745 dist gaussian

group Ti type 2
63 atoms in group Ti
group O type 1
126 atoms in group O

#compute TiMSD Ti msd com yes average no
#compute OMSD O msd com yes average no
#fix 1 Ti ave/time 1 1 200 c_TiMSD[*] file ${runString}.msdTi mode vector
#fix 2 O ave/time 1 1 200 c_OMSD[*] file ${runString}.msdO mode vector


neighbor          0.3 bin
neigh_modify      delay 0 every 1 check yes

thermo            100
thermo_style custom step temp pxx pyy pzz density pe

dump D1 all custom 10000 ${runString}.dump id type x y z ix iy iz
dump D1 all custom 10000 hot_npt.dump id type x y z ix iy iz


timestep          0.5
run               400000
Ewald initialization ...
  using 12-bit tables for long-range coulomb
  G vector (1/distance) = 0.28450507
  estimated absolute RMS force accuracy = 0.033213181
  estimated relative force accuracy = 0.00010002051
  KSpace vectors: actual max1d max3d = 257 5 665
                  kxmax kymax kzmax  = 5 5 5
Generated 0 of 1 mixed pair_coeff terms from geometric mixing rule
Neighbor list info ...
  update: every = 1 steps, delay = 0 steps, check = yes
  max neighbors/atom: 2000, page size: 100000
  master list distance cutoff = 10.3
  ghost atom cutoff = 10.3
  binsize = 5.15, bins = 4 4 4
  1 neighbor lists, perpetual/occasional/extra = 1 0 0
  (1) pair buck/coul/long, perpetual
      attributes: half, newton on
      pair build: half/bin/atomonly/newton
      stencil: half/bin/3d
      bin: standard
Per MPI rank memory allocation (min/avg/max) = 11.98 | 11.98 | 11.98 Mbytes
   Step          Temp           Pxx            Pyy            Pzz          Density         PotEng    
         0   3064.7279     -20167.333     -4759.9965     -2007.9261      2.0397933     -53422.903    
       100   3165.6012      605.55705     -15059.271     -11937.944      2.0760764     -53503.809    
       200   3037.9318     -1984.7966     -15456.442     -22625.145      2.0942273     -53475.401    
       300   2842.3937     -212.54138     -2460.0464     -19819.83       2.128791      -53487.116    
       400   2891.9201     -11264.264     -8233.9019     -5415.4036      2.2183361     -53647.052    
       500   2633.8009      17972.59      -5455.5106     -4394.4481      2.3280025     -53554.147    
       600   3052.0615     -2660.3995     -9438.9814      18342.459      2.3349429     -53783.698    
       700   2948.5156      12786.37       2301.188       13621.481      2.3806782     -53709.248    
       800   3015.7794     -191.25119     -14338.775      1374.9657      2.3571704     -53739.273    
       900   3154.3184      6515.2871     -5206.8347      988.82314      2.4135198     -53806.181    
      1000   2885.7462      3178.5156     -6152.3994     -10393.755      2.350417      -53696.992    
      1100   2960.4991     -4996.8796     -11592.489      12624.758      2.4819094     -53787.584    
      1200   2718.3402     -2351.7065     -20536.836      9812.0288      2.4877432     -53706.265    
      1300   2727.789       1653.7281      7217.9163      8095.5586      2.4901142     -53774.682    
      1400   2888.4144     -3873.1117     -9726.1596     -17500.056      2.6124911     -53943.08     
      1500   2824.6785      5099.3951     -2285.1927     -45344.504      2.6568971     -53974.398    
      1600   2792.6691      21556.17       13168.391     -16071.737      2.7572824     -54004.571    
      1700   2817.1376      14995.038     -9905.8235     -3925.278       2.7419593     -54001.136    
      1800   2893.3448      7070.4028      29965.788      21607.429      2.811596      -53959.38     
      1900   2922.6576      16564.216     -4824.9131     -10411.733      2.7266311     -53844.352    
      2000   3061.4669      25808.436      45864.068      34361.216      2.8275012     -53830.127    
      2100   2792.9138      6474.6278      36420.738      28779.474      2.7521948     -53628.879    
      2200   3237.5338      13417.427      14941.778      7446.6117      2.8685298     -53848.899    
      2300   2950.4615     -12806.792     -3859.1527     -26482.877      2.8726918     -53705.319    
      2400   3148.6094      9953.8022     -194.56224     -18173.37       2.9312828     -53873.088    
      2500   3152.4793      3573.6944      2938.1345     -10742.631      2.8914373     -53972.376    
      2600   2976.7554      9873.7984     -16443.213      17218.223      2.9707653     -53980.831    
      2700   2817.9198      6714.3908     -5197.7432      3224.8472      2.963112      -53939.146    
      2800   2969.4473     -2396.6281      759.99027      37140.415      3.0342166     -54027.25     
      2900   3072.9117      20190.356      14305.827      14723.296      3.1173865     -54046.411    
      3000   3110.3709     -5775.0488     -10266.412      50514.596      3.16215       -54028.81     
      3100   3197.8948     -6639.1296      9017.9507      3301.4767      3.0988429     -54064.727    
      3200   3053.0357      15592.674      1249.2618      11957.056      3.1764286     -54016.91     
      3300   3109.7337     -6828.7688      33900.406      1237.2355      3.0812429     -54083.94     
      3400   2912.0786     -23221.539     -47271.247     -11461.801      2.9969818     -54063.811    
      3500   2613.9273     -13163.461     -22993.457     -25077.283      2.9617123     -54017.683    
      3600   2697.4553     -41272.679     -29884.106     -13585.097      2.9812761     -54100.979    
      3700   2801.325       4023.2255      1393.5013      5937.5199      3.0802912     -54128.022    
      3800   2915.5084      5116.5951      5984.9602     -3458.0952      3.1296017     -54111.467    
      3900   3046.0234      14159.752      1187.9179     -5546.2687      3.0810687     -54042.677    
      4000   3097.5263      13272.569      5530.702       4696.9411      3.0495777     -53995.53     
      4100   3067.1883      16376.272     -7645.8597     -4100.5348      3.1121528     -53955.651    
      4200   2954.4448      24912.158      9472.0154      12842.311      3.1692561     -53884.876    
      4300   2898.4588      17939.453      1052.0683      30977.209      3.1641405     -53872.056    
      4400   3223.6044      9699.5033     -3823.7541      4908.3577      3.2023314     -54078.272    
      4500   3272.4189     -6666.4628     -302.28329      7814.4884      3.2867235     -54190.833    
      4600   3019.7611      5244.3005     -14143.825      8142.1709      3.2796365     -54178.732    
      4700   2838.2508     -35125.808     -5871.8328     -2439.0897      3.1847734     -54137.04     
      4800   2717.1234     -13978.014      8798.5986      4627.8163      3.3424455     -54058.735    
      4900   2714.5858     -14703.978     -8746.5568      10838.415      3.3210937     -54002.817    
      5000   2926.3373     -38874.494     -12858.706      5970.0888      3.3233946     -54056.326    
      5100   2937.4013     -30894.127      11703.97       19743.86       3.3584171     -54020.731    
      5200   3083.4717     -342.97464      22329.474      36165.84       3.3624526     -54076.891    
      5300   2920.7253      19549.87      -11860.161      52061.566      3.3441709     -53978.753    
      5400   3262.4702     -24476.405      16083.423      22052.957      3.3932891     -54198.46     
      5500   3231.6716      24678.63       43412.255      22663.099      3.4975513     -54245.132    
      5600   2861.427      -11239.05       24195.114      12258.493      3.4094254     -54143.859    
      5700   2776.0524      270.8721      -9689.1716     -5114.8686      3.3487791     -54195.013    
      5800   2855.6391     -34820.814      30338.86      -17677.929      3.3926609     -54294.406    
      5900   2989.8175     -4471.6767      7066.7416      13799.775      3.4854237     -54402.779    
      6000   2638.1643      5023.9952      10440.529      1760.0091      3.4898582     -54236.145    
      6100   2941.5836     -14230.18       16874.718     -18857.846      3.4894516     -54406.789    
      6200   3021.0919      11476.221      30694.451      7053.8962      3.5514437     -54369.513    
      6300   3145.5883      19321.493     -10683.793     -8236.4191      3.5105622     -54344.006    
      6400   3142.766       21141.341     -2560.5022      18537.274      3.5071328     -54240.401    
      6500   3049.3952     -56551.863     -34816.384     -33189.495      3.3692188     -54137.369    
      6600   3042.6975     -13108.009     -39238.234     -34956.009      3.4384041     -54112.129    
      6700   2938.9853      652.14521     -27669.556     -59185.862      3.3708951     -54106.282    
      6800   3088.9398     -6999.2845     -24906.488     -26437.772      3.5264637     -54257.498    
      6900   3107.619      -2578.9765      29802.91       2563.3266      3.629682      -54351.702    
      7000   3030.3168      3041.7         10831.567      29659.446      3.5583918     -54382.664    
      7100   2665.1394     -3862.4005      66470.028      22220.636      3.5760256     -54241.587    
      7200   3164.3466      6828.2582      38285.039      22743.952      3.6519764     -54556.124    
      7300   2792.1761      46136.821      35222.298      53571.001      3.6460202     -54364.466    
      7400   2990.3774     -11838.246      18137.92       5759.6272      3.5910783     -54443.307    
      7500   2960.055       4716.5236      9438.8226     -23926.523      3.5718677     -54322.402    
      7600   3252.2686     -3763.659      -32702.512      444.77388      3.5511375     -54388.027    
      7700   2856.4143      16940.957      30396.807     -43426.18       3.5603365     -54110.981    
      7800   3216.4889      33297.083     -3121.4766      22659.147      3.6228775     -54277.424    
      7900   3041.8229      26309.3        50286.111      9207.4241      3.5629086     -54157.912    
      8000   3070.954      -4640.0474      10980.779      12721.573      3.5558893     -54144.254    
      8100   3112.121       58205.099      2628.849      -10485.805      3.6404595     -54158.535    
      8200   3019.3461      28929.465      6577.6156      43150.65       3.5968355     -54134.245    
      8300   3360.7442      37322.877      26009.003      48758.097      3.6601399     -54380.673    
      8400   3168.0151      3170.1649     -4831.2901     -1250.219       3.5290334     -54394.251    
      8500   2893.1941      15211.512      8489.0876     -3521.6446      3.5876391     -54348.07     
      8600   3031.313      -24283.276     -33194.365     -833.90591      3.5248214     -54493.463    
      8700   2745.7749      18506.46      -2021.3339      21130.451      3.5678654     -54363.219    
      8800   2961.1526      9464.6249     -3198.6492     -23780.697      3.5800353     -54448.331    
      8900   2847.2071     -13610.272     -13622.29       4447.7475      3.54043       -54316.387    
      9000   2986.1858     -19753.209     -7087.526      -43484.618      3.4814155     -54278.044    
      9100   2894.0021     -7549.7343      3292.4475      5970.3308      3.5819664     -54167.84     
      9200   3136.2108      14930.206      41116.369      11950.918      3.6485742     -54286.19     
      9300   2953.1979     -16764.227      23519.976      5108.4248      3.5674532     -54205.009    
      9400   3289.4972      32308.954     -2116.5399      10058.271      3.7129183     -54389.354    
      9500   3199.8706     -26448.728     -24690.934      3962.0041      3.6331695     -54351.601    
      9600   3120.503      -28161.143      14488.253      21763.966      3.5945191     -54360.802    
      9700   3050.0104      8515.9621     -11208.957      18890.993      3.5935528     -54437.673    
      9800   2921.7138      10701.71      -1971.161       2149.521       3.604187      -54475.663    
      9900   2876.8531     -7315.3506      11948.431      10618.404      3.6695698     -54486.809    
     10000   3141.7745     -6539.7046      35605.081      26991.214      3.7153395     -54615.959    
     10100   2944.0977      27532.147      53577.321      20426.241      3.7491684     -54492.208    
     10200   2948.3126      1730.446       7458.161       29071.701      3.6611888     -54476.077    
     10300   3149.5079     -9108.7665      40777.947      12268.503      3.6414527     -54535.075    
     10400   3049.1437      9514.8004      3873.6435     -8580.8461      3.6227979     -54401.347    
     10500   2969.9916     -860.05107      2126.9681      19531.071      3.58913       -54282.579    
     10600   3319.7021     -38021.694      236.10048     -5132.1931      3.6007476     -54388.052    
     10700   2941.9426     -22938.053     -14773.539      10047.852      3.4553394     -54128.58     
     10800   3435.5471      27025.089      19954.568     -442.49266      3.6288161     -54393.226    
     10900   2943.1019      48859.42       19573.711      53476.897      3.6004755     -54131.624    
     11000   3056.8511      31116.107      31220.839      21689.655      3.5555322     -54212.006    
     11100   3247.2072      28595.054      18918.979      15390.985      3.5400457     -54340.739    
     11200   3152.1849     -23544.249     -29853.933      8269.513       3.4780092     -54314.294    
     11300   2981.089      -25455.689     -27786.136     -16618.039      3.4107955     -54276.718    
     11400   2828.6632      7742.4219     -12670.85      -24576.794      3.4493144     -54241.626    
     11500   2925.3966      6583.829       47936.823      17425.175      3.5406418     -54303.737    
     11600   2779.4123      9912.2909     -18952.76       9214.6443      3.4777284     -54176.284    
     11700   2981.0687      5074.2842     -26351.229      19165.076      3.5117484     -54143.758    
     11800   3199.7011     -5675.8462     -27165.642      7992.6741      3.448035      -54143.061    
     11900   3037.5596      42308.61      -9061.9756     -19726.636      3.4708742     -54016.253    
     12000   3306.6926      22755.038     -17617.53      -23403.871      3.4323937     -54190.657    
     12100   3142.2728      5618.1119      9093.4363     -13833.869      3.4972252     -54181.646    
     12200   3122.8988     -20665.745      5351.3108     -8817.113       3.5173553     -54267.233    
     12300   2861.7935      10575.451     -16249.936     -21272.084      3.4235345     -54207.265    
     12400   2762.6475     -15424.771      403.77735     -17602.734      3.447694      -54199.328    
     12500   2789.3372     -29533.442     -18187.465     -18564.251      3.4488075     -54219.864    
     12600   2963.5958     -16300.584      14455.506      20360.643      3.4807901     -54278.761    
     12700   2846.8673      1307.2263      27682.831      11337.783      3.435907      -54153.163    
     12800   2756.1074     -3989.2466     -1541.1204      15392.355      3.4255225     -54041.187    
     12900   3174.1588     -19015.561     -7899.6061     -18148.386      3.4337323     -54218.172    
     13000   3075.0793     -15309.525     -37162.356     -18482.121      3.3064394     -54151.573    
     13100   2999.2423     -9561.8584     -12912.528     -24187.023      3.4200398     -54145.344    
     13200   3053.8449      13536.385     -4053.2945      3474.926       3.4877643     -54208.583    
     13300   2838.4327     -6847.5214      8450.5121     -13238.372      3.3861905     -54135.961    
     13400   3009.7053     -19916.762     -7030.3174     -31264.077      3.4745017     -54257.463    
     13500   2938.9636     -13394.855      4163.4125     -75178.18       3.3557968     -54214.137    
     13600   2802.4936     -8280.3468      36452.04       39.244216      3.4495105     -54136.091    
     13700   2886.6188      11040.535      20809.379      13775.882      3.4700366     -54153.852    
     13800   3037.7834      43430.219      29047.507      11167.111      3.5368255     -54225.076    
     13900   2948.445      -16153.923      9733.7732      18396.706      3.4335013     -54184.434    
     14000   3085.6619     -10695.178      34949.38      -7651.5093      3.4575172     -54268.057    
     14100   3077.1668     -1890.6493      62567.325      8027.3212      3.4827187     -54259.349    
     14200   3202.5558      7346.9866      41071.115      7906.1712      3.3779281     -54294.913    
     14300   2976.1989     -5305.7799      34658.888      6682.6918      3.3847372     -54112.927    
     14400   3182.2061      24595.687      3659.9315     -44496.167      3.3617794     -54127.755    
     14500   3241.2434      29185.03       64331.48       18521.958      3.4322395     -54035.761    
     14600   3224.2099      44.959478      55674.526      1419.5894      3.3663529     -53971.186    
     14700   3198.4525      19965.949     -2123.1795     -26127.661      3.2515602     -53998.853    
     14800   3195.3442      46966.997     -12523.88      -3098.2925      3.4433742     -54104.603    
     14900   2864.824       3790.7194      10533.472     -27150.645      3.3901957     -54079.722    
     15000   3121.6885     -8748.5362      12.777348     -2232.9654      3.376896      -54299.813    
     15100   3056.1827      1221.9961     -13653.171     -15812.224      3.4608308     -54286.686    
     15200   2829.9264     -36139.177      5695.1099     -21136.151      3.4127473     -54146.137    
     15300   3000.2285      12797.114     -3906.9277     -27123.103      3.3955336     -54193.94     
     15400   2852.5313     -13191.801     -13755.865      4759.0162      3.5171721     -54099.986    
     15500   2923.311      -4574.0815     -27564.949     -12604.941      3.315487      -54124.007    
     15600   3173.041       18517.463      27539.435     -18754.854      3.4084339     -54237.788    
     15700   2894.0001     -37832.577     -5266.0204     -16292.283      3.2542101     -54059.473    
     15800   3024.137      -15377.338      12556.832      5066.8086      3.330122      -54110.451    
     15900   2913.6936      14035.339     -27949.441     -13055.171      3.2352734     -54021.608    
     16000   3231.7828      15607.646     -1354.0303     -1738.5081      3.2606013     -54169.032    
     16100   2895.2661     -2494.1742      6042.3257     -17887.123      3.26063       -53991.13     
     16200   3264.4096      5388.7189      16169.87      -12980.937      3.2707869     -54199.592    
     16300   2976.0417      16301.886      28222.741      16696.057      3.3510641     -54064.009    
     16400   3029.8938      30243.92       28609.32       23429.436      3.393855      -54142.449    
     16500   2997.1399      18344.146     -38180.322     -12071.039      3.3493131     -54198.962    
     16600   2996.3228      1437.1857     -10946.604     -7145.9996      3.3179517     -54275.751    
     16700   3201.8648      8481.9306      10571.381      30968.218      3.5640462     -54472.889    
     16800   2551.5345     -10668.348      10148.865     -24425.913      3.3287916     -54173.71     
     16900   2722.9272      24954.559     -8225.2569     -2761.1376      3.3946552     -54263.008    
     17000   2861.8451     -8405.2461     -11008.255      6525.8474      3.4162279     -54270.037    
     17100   2831.0551      9517.2477      8594.981      -11881.369      3.434383      -54073.758    
     17200   2982.5853      10831.602     -8261.4637     -45827.317      3.3000365     -54070.076    
     17300   2981.2832     -20530.415     -16000.596     -11345.537      3.3691932     -54060.215    
     17400   3000.977      -29478.531     -24024.566     -14806.341      3.4516551     -54077.188    
     17500   2683.9197      14834.632     -15506.931     -14656.703      3.5192351     -53959.083    
     17600   2941.6089     -28018.061      29390.003     -29892.088      3.4405632     -54148.951    
     17700   3068.2953     -7766.8087     -10135.238     -34541.731      3.4212932     -54248.376    
     17800   2929.9647     -14110.384     -3023.7026     -9253.4742      3.4146042     -54208.143    
     17900   3208.6475     -15368.435      18657.693      25052.834      3.5597626     -54409.936    
     18000   2844.3465      18026.334     -3049.8945      7265.0771      3.5491085     -54270.521    
     18100   2944.8139      3837.7553     -11131.092     -3544.568       3.5615137     -54417.749    
     18200   2943.1139      23330.962     -16462.298      13454.493      3.5787761     -54486.992    
     18300   2662.6135      4819.4957      18098.684      8793.9605      3.4230652     -54367.719    
     18400   2809.0058     -28211.798     -5712.1698     -3121.9222      3.3796635     -54427.105    
     18500   3131.7667     -5300.2783      15890.608     -24585.481      3.4575886     -54447.649    
     18600   2774.8085      32919.757      5183.1343      6160.8538      3.4312295     -54116.697    
     18700   3185.9237      1557.809       11281.147     -6489.5758      3.4773489     -54275.681    
     18800   2889.6577      25168.341      49487.062      15144.386      3.4742756     -54080.905    
     18900   2744.8553      20128.028      49289.38       326.39412      3.5257656     -53990.474    
     19000   2902.4365      38987.248     -5665.8385      11115.608      3.4875137     -54051.431    
     19100   3272.6365      18946.675     -875.8981      -1057.1369      3.4367186     -54203.996    
     19200   3005.1992     -29572.075     -9897.598      -42848.986      3.363649      -53995.104    
     19300   3238.6842      4489.3602     -4397.1804     -24479.787      3.3875969     -54053.27     
     19400   3055.0384      26128.274      9953.9919      14508.992      3.4191171     -53878.575    
     19500   3219.7642      3837.7322     -19227.616     -12625.218      3.2244729     -53939.694    
     19600   3087.7824     -1010.1414     -17644.381     -2443.9407      3.2791004     -53947.675    
     19700   2937.7684     -6331.6913      1425.4719      15574.061      3.2719856     -54020.076    
     19800   2711.7956     -5217.6375     -4787.6909      21524.449      3.2065374     -53970.759    
     19900   2764.5164      16970.257     -15711.827      8409.7121      3.1977464     -54005.824    
     20000   3221.1568      2665.17       -42543.128     -18407.235      3.1993377     -54224.067    
     20100   3036.137       35381.888      10398.88      -3321.0166      3.3808893     -54078.813    
     20200   3061.3631      22548.131     -4475.6834      21073.187      3.2115609     -54035.069    
     20300   3211.3514      8841.721       11128.3       -2153.3204      3.2648121     -54056.34     
     20400   3041.9659     -27176.702      842.8182       5658.4326      3.2177477     -53922.552    
     20500   3165.2367     -13550.927     -27698.276     -2323.828       3.2929998     -53961.154    
     20600   3301.8433      2138.3549     -23085.699     -20613.486      3.3381421     -54051.193    
     20700   3274.7849     -5736.9179     -7275.4226      14875.035      3.4148056     -54163.189    
     20800   3030.7318     -10389.509     -20570.051     -16713.909      3.424494      -54182.22     
     20900   2999.0101      11296.829      24633.743      13553.411      3.4350954     -54254.046    
     21000   2984.237      -3783.5853      11921.414      22952.301      3.4757302     -54282.913    
     21100   2898.6599      5762.363      -4883.901      -14591.145      3.3963115     -54263.858    
     21200   3132.0913     -11452.12       12882.699      20677.397      3.4222968     -54361.927    
     21300   2975.4325     -11296.547      34303.647      22879.17       3.3744462     -54233.448    
     21400   2944.9591     -27596.95      -117.80309      13048.991      3.4236497     -54119.367    
     21500   3321.9781     -3855.6643      18064.102     -19305.956      3.4458425     -54224.614    
     21600   3171.8072     -2443.4707      22217.224      29657.432      3.5003571     -54119.622    
     21700   2970.5599     -1083.6944      24868.799     -2577.4827      3.513564      -54072.838    
     21800   2862.886       1789.6751      14829.82      -6925.0905      3.5136704     -54130.383    
     21900   2983.1944     -3710.0527     -2064.2009     -2031.5642      3.4666113     -54273.728    
     22000   3035.3096     -2046.5008      16297.338      13408.278      3.4928368     -54407.507    
     22100   2750.2154     -24443.806      24737.035      40906.38       3.5811444     -54397.732    
     22200   2833.0652      24090.17      -6564.5231      34575.403      3.6629948     -54587.2      
     22300   2742.8023     -5594.1243      18674.241      36628.183      3.5732219     -54554.606    
     22400   2791.6351     -12169.087     -5733.2225      17957.846      3.4497514     -54535.133    
     22500   2858.9688      26830.41       7659.4908      18265.602      3.4140374     -54480.004    
     22600   2908.2471      48483.531      6719.6099      7936.518       3.4330311     -54407.203    
     22700   3074.5724      3925.5899      12286.402     -33004.805      3.3805302     -54419.212    
     22800   2899.1055      18466.964     -34675.604     -18000.339      3.3524366     -54248.285    
     22900   3033.5426      49161.808      13182.301      3748.4701      3.4659888     -54253.254    
     23000   2917.9637     -3733.8888     -3324.1596     -12408.45       3.3554668     -54149.986    
     23100   3018.1586      7977.3329     -11020.101      6643.0723      3.4267235     -54105.699    
     23200   2760.1641     -4033.1573     -1352.2272      29613.943      3.3937521     -53893.509    
     23300   2996.5195     -22874.54       14179.419     -7875.1592      3.3750178     -53951.145    
     23400   2976.2069     -15592.785     -12048.095     -24371.477      3.3445174     -53877.527    
     23500   3131.1666     -7339.2881     -5505.3203     -6767.1729      3.3874969     -53919.158    
     23600   3196.5013     -1991.9294     -26776.528     -21456.076      3.2510636     -53928.061    
     23700   3252.4562     -4343.4473      7710.5552      29006.889      3.4032413     -54042.728    
     23800   3211.2055      37475.02       17479.232     -10228.119      3.3553506     -54194.439    
     23900   2904.5989      7037.0291      3934.9801      1881.7822      3.3696747     -54148.959    
     24000   2808.6268      25049.224      11286.975      37437.907      3.5517269     -54157.699    
     24100   3059.6764      17813.859     -25865.368      23306.977      3.5823598     -54336.305    
     24200   2905.1683     -14071.766     -3728.5342     -29251.382      3.5468544     -54288.298    
     24300   2731.42       -17035.161     -30703.18      -6987.2397      3.5467492     -54196.377    
     24400   2917.9517      7085.2821     -11157.681      2575.1591      3.5740466     -54256.705    
     24500   2846.5195      9686.9515     -21315.004     -12862.952      3.423367      -54121.746    
     24600   3087.3191     -26699.43      -19336.47       16866.918      3.3602017     -54154.021    
     24700   3002.5994      5188.0255      4499.56        5390.555       3.4786775     -54016.566    
     24800   3210.6131      14290.675      16287.491     -19342.908      3.3602321     -54107.475    
     24900   3110.347      -10101.458      12673.428     -12482.244      3.3594221     -54084.127    
     25000   3211.8655     -13241.181      7184.8942      42554.802      3.4817923     -54209.271    
     25100   2843.0051     -45756.044     -8848.402      -2013.9959      3.3776305     -54069.956    
     25200   2706.2413     -54657.748     -41859.936     -37605.884      3.3555345     -54022.015    
     25300   2987.4189     -68750.042     -45443.617     -5616.211       3.5001715     -54212.881    
     25400   3192.6595     -59002.209      3426.3765     -8911.5907      3.4717265     -54353.913    
     25500   2988.4816     -32375.912      5819.4268     -8365.2345      3.5115191     -54283.701    
     25600   2815.9281     -8704.5887     -27622.673      7815.6919      3.4937735     -54226.246    
     25700   2917.1222     -2087.6171      553.00536     -28664.778      3.4335341     -54292.788    
     25800   2852.8397      19565.962     -10066.541     -5796.0353      3.5275913     -54270.193    
     25900   3016.2953     -20923.564     -40811.602      19058.801      3.5467695     -54399.055    
     26000   2944.3188     -63.678911     -27550.44      -7036.8819      3.5584312     -54430.544    
     26100   2731.2252      47116.025     -6924.4432      19034.492      3.6124428     -54358.391    
     26200   2671.1328      44424.237      41335.939      26566.219      3.5565389     -54315.811    
     26300   2778.0615      3640.9806      25021.86       26825.168      3.4922695     -54328.672    
     26400   2777.4406      60079.008      45912.891      24323.738      3.5651072     -54240.849    
     26500   2908.1892      5326.9856      13298.341      33874.159      3.5411309     -54200.777    
     26600   3103.4968      2543.0865     -27326.777     -31672.259      3.4578032     -54227.372    
     26700   3051.189       3421.443      -8061.9346     -21411.52       3.4367185     -54156.654    
     26800   2750.9398     -49220.801     -30959.128     -8805.0893      3.2580982     -53964.897    
     26900   2955.938      -6816.964       519.96475      25682.999      3.3496664     -54036.59     
     27000   3013.1722      72378.693      30049.88       61502.282      3.3666149     -53984.456    
     27100   3232.926       40304.023      27328.01       53144.557      3.3712553     -54006.925    
     27200   3006.4501      29713.045     -13654.939     -12112.385      3.2186774     -53876.701    
     27300   3268.593      -29632.385     -27904.544      7742.1482      3.2164279     -53977.259    
     27400   3023.0325     -15463.31      -9205.6626      2855.8035      3.1930309     -53810.744    
     27500   3050.5436      10562         -35034.312      25515.497      3.2018038     -53834.046    
     27600   3298.5565      18273.957      18525.674      10692.716      3.3123521     -54066.925    
     27700   3061.585      -20174.206     -2506.8815      37035.783      3.3075449     -54067.064    
     27800   2929.1094      6419.8786     -13724         -10878.767      3.2110847     -54094.303    
     27900   2724.3573     -11802.824     -41210.13       499.34332      3.1984862     -54010.959    
     28000   2967.1268      26334.9        2947.295       6357.9594      3.3229058     -54150.706    
     28100   2993.3851     -22980.496      11031.985     -5556.3094      3.244905      -54163.61     
     28200   2980.0966      10333.065      12110.704      5604.5607      3.2882583     -54131.104    
     28300   3019.1639      2087.4079      9327.5655     -13421.377      3.3149546     -54087.524    
     28400   3295.8766     -34275.837      12265.785     -7740.9748      3.3033725     -54162.72     
     28500   3250.2161     -24161.121      12712.475     -3481.549       3.3275679     -54081.713    
     28600   3449.5382      3249.9128      10963.701     -23281.243      3.2823689     -54166.512    
     28700   3452.1839     -9874.3995      3113.0107     -8865.5128      3.3533726     -54230.224    
     28800   2916.1895      15385.355      17957.649      50739.373      3.3790226     -54084.345    
     28900   3070.1244     -9213.7996     -1118.5492     -10181.619      3.3886309     -54264.911    
     29000   2974.2661     -20785.174     -12521.887     -19726.374      3.4152874     -54269.856    
     29100   3123.8194     -28807.366      5963.0341      2264.2097      3.3950167     -54406.774    
     29200   2812.2112      743.63929      19593.578     -14259.359      3.3396073     -54271.764    
     29300   2607.939      -25284.94      -17200.153      48167.341      3.2884084     -54151.324    
     29400   3112.1221      19451.066      28395.516      1782.7252      3.4154521     -54368.087    
     29500   2985.4169      9632.9177      11787.166     -21864.686      3.4125464     -54209.706    
     29600   2986.1708     -41153.367     -35103.497      17731.548      3.3329867     -54103.702    
     29700   3051.5147      7346.3202     -15601.131     -35857.111      3.357153      -53992.679    
     29800   2973.2217     -1909.8139     -31521.391     -1279.0616      3.3115527     -53832.506    
     29900   3179.6624     -7325.6003     -17175.999     -23803.973      3.3622964     -53920.092    
     30000   3062.9369     -14781.262      29783.498      5431.8247      3.3991504     -53885.156    
     30100   3361.245       28003.453      40163.155      44033.214      3.4753624     -54108.797    
     30200   3250.6571      30247.081      33181.081      25149.99       3.4899004     -54129.264    
     30300   3198.961      -7498.7636      7691.8519     -6441.8219      3.4378367     -54209.108    
     30400   2974.6601      1876.5292      45592.148      23246.056      3.5214949     -54170.59     
     30500   3106.9317     -44753.035     -1214.9923      8524.2814      3.4175956     -54291.896    
     30600   3067.5624     -3982.9773     -18062.152      905.62351      3.4277308     -54295.675    
     30700   3148.1796     -10838.933      38952.112      16418.957      3.5408648     -54345.645    
     30800   2901.316      -19733.526     -17653.359     -15017.585      3.4036884     -54241.735    
     30900   3055.3925      4997.7008      5762.4115      15496.304      3.5290744     -54385.821    
     31000   2954.6057      1426.2268      23329.153      12429.471      3.5078387     -54423.463    
     31100   2897.242      -8844.9558      34327.029     -5198.2594      3.5292676     -54495.279    
     31200   2786.4482     -936.87447      11130.715      31026.649      3.6131638     -54469.387    
     31300   2815.7129      24640.519      10426.866     -4614.2913      3.5600442     -54461.841    
     31400   3011.067      -4443.1675     -18559.665      23250.119      3.5000399     -54486.279    
     31500   2786.3181      25338.333     -16439.213      35081.209      3.5661354     -54207.752    
     31600   2906.069       149.92068      7221.9101      9169.292       3.5454269     -54168.051    
     31700   3122.5465     -42944.972      7326.2625      17165.902      3.4487736     -54246.763    
     31800   3107.3211     -23431.046     -35654.762     -28560.264      3.3823275     -54233.684    
     31900   3020.5041     -10644.217     -43817.46      -14444.643      3.4244618     -54197.611    
     32000   3213.6004      11178.172     -11227.801      16136.179      3.5454447     -54344.633    
     32100   2958.2614      47326.826      48966.73       41574.264      3.5785307     -54272.958    
     32200   2903.1172      919.41722      17745.731     -7939.028       3.535155      -54295.127    
     32300   3015.323      -23746.058      18094.406     -6523.0619      3.4845494     -54367.563    
     32400   2914.6216      29039.048     -2235.5001     -4375.9184      3.4547442     -54334.909    
     32500   2946.8696     -6154.9144     -9409.5117     -23133.001      3.3961812     -54391.925    
     32600   2917.2239     -45650.291     -38773.809     -25418.292      3.4091841     -54411.243    
     32700   2826.6647     -10835.879     -27533.802     -13749.146      3.4539879     -54391.654    
     32800   2654.7425     -12291.71      -27364.595     -1794.3731      3.4755338     -54296.232    
     32900   2832.9485     -21427.705     -21709.842     -15585.432      3.4450697     -54344.544    
     33000   2882.5247     -41682.731     -9747.313       20351.317      3.3942475     -54261.302    
     33100   2776.0986     -65441.619      6015.9249     -28030.414      3.235968      -54088.687    
     33200   2903.3796     -726.16548     -19060.293      4602.6092      3.4380179     -54043.429    
     33300   2966.1346      1533.0358      308.0237       24580.305      3.4324606     -54023.932    
     33400   3055.3335     -10567.695      10528.032     -19401.754      3.3072609     -54058.042    
     33500   3017.1028     -8732.6077      9328.4496      20109.121      3.3075616     -54057.442    
     33600   3099.1822      35952.844      18236.665      31059.495      3.3027441     -54142.908    
     33700   2955.0955      2578.0788      24277.6       -3122.7136      3.2856861     -54125.592    
     33800   3025.3908      6317.087       22413.509     -8641.0209      3.4064801     -54238.245    
     33900   2842.4307     -17538.792     -15088.071      31064.732      3.3831011     -54256.298    
     34000   2601.3309      3385.8045     -19435.22       10572.514      3.306846      -54224.74     
     34100   2741.2363     -33068.524     -35096.083      11596.518      3.3272479     -54322.576    
     34200   3071.7448     -16900.63      -12447.872     -6646.5762      3.4375148     -54479.845    
     34300   2743.643       43530.483      10271.401      38539.58       3.4882688     -54263.815    
     34400   2838.4513      12858.277      25709.059      33753.95       3.4593702     -54243.058    
     34500   3024.5276      1266.7288     -36696.627     -20029.345      3.4905121     -54304.995    
     34600   2732.6314     -44353.964     -46455.17      -51383.557      3.3629152     -54109.281    
     34700   3054.714       22786.406     -27285.423      8973.8685      3.518169      -54256.493    
     34800   3159.4128      44484.872      64150.91      -12859.107      3.528289      -54313.275    
     34900   3130.6829      17447.268      19190.121      1370.4362      3.577186      -54295.829    
     35000   2937.9287      26211.594      2429.4507      41577.283      3.5743538     -54201.662    
     35100   3231.869       31363.672     -4259.4045      50382.562      3.5199855     -54364.677    
     35200   2908.6227      19847.925     -3494.5475      3225.9184      3.5026622     -54205.512    
     35300   2987.4191      8854.1992      1104.4445     -3136.6559      3.5322973     -54253.761    
     35400   2843.1728     -29284.503     -29006.892      734.80864      3.4253623     -54171.854    
     35500   3137.1083     -15791.512     -39426.96      -28098.31       3.5049343     -54315.566    
     35600   3046.2492     -24547.24      -27659.972     -22677.885      3.4401881     -54253.856    
     35700   3146.4945      31890.761      3143.7789      1279.9945      3.5949234     -54307.197    
     35800   3033.637       34967.714     -27574.941     -5087.112       3.5838243     -54221.529    
     35900   3049.0741      17767.323      378.83469     -7904.8511      3.5077237     -54181.942    
     36000   3110.2231      24737.839     -16257.111     -12157.18       3.5777796     -54150.59     
     36100   3230.0842      36159.484      26211.279      5563.3514      3.564856      -54171.922    
     36200   2836.3113     -18281.371      34963.333      28849.584      3.5963041     -53970.877    
     36300   3035.0164      5786.3893     -26072.325     -1962.5561      3.458005      -54145.778    
     36400   2879.0955     -17268.315      5815.6827      36521.778      3.4487821     -54172.83     
     36500   2648.0283      2584.1571     -37834.761     -12118.597      3.4249358     -54136.961    
     36600   2785.4769     -20640.337     -1561.9056     -32253.823      3.4444565     -54253.077    
     36700   2686.1313      12805.904     -8432.3001     -4251.8593      3.5091616     -54185.862    
     36800   2720.4505     -21368.129     -21492.816     -12449.273      3.4710739     -54149.028    
     36900   3001.9006     -34885.601      7315.334      -12001.216      3.477182      -54190.118    
     37000   3238.3453      26657.763     -25439.201      10119.086      3.5667113     -54193.771    
     37100   3154.4343     -5761.458      -33148.463      17268.397      3.4524528     -54042.328    
     37200   3163.9054      17624.848      15523.341     -25085.394      3.4774986     -53967.28     
     37300   3179.0651     -34229.558     -9932.3227     -16029.382      3.3615496     -53951.665    
     37400   3118.3794     -1781.4768      28300.147     -13083.174      3.4950858     -53956.304    
     37500   2988.2865     -31159.203      9740.1966     -34126.167      3.4349739     -53971.214    
     37600   2972.1424      16136.04       30030.893     -6263.5057      3.5381033     -54058.107    
     37700   3185.4817      19337.113      13494.849     -7770.139       3.5530068     -54279.149    
     37800   2890.1468     -30902.522      22844.654      13090.754      3.5025119     -54216.041    
     37900   2863.2992      24595.551      12819.943      27754.933      3.5494029     -54270.609    
     38000   2688.9347     -41509.078     -1070.6683      18072.01       3.4489342     -54202.173    
     38100   3112.7095      16859.775     -5376.9316     -43628.253      3.5881101     -54406.301    
     38200   2917.9169      21322.273     -8138.5036     -20942.046      3.5389081     -54266.464    
     38300   2956.858       12712.512     -5479.514      -25962.398      3.4386725     -54234.974    
     38400   3223.35       -1332.2902     -7134.9622      12450.861      3.527714      -54282.297    
     38500   2956.9814     -20687.418     -14430.916     -11803.053      3.4500281     -54015.181    
     38600   3192.5215     -42815.469     -28665.218     -13400.405      3.4056114     -54072.722    
     38700   3483.7904     -39715.575      16654.929      11445.938      3.5027446     -54234.522    
     38800   3313.5846     -27132.234     -30872.961     -42213.186      3.3665052     -54222.168    
     38900   3170.2698     -17876.464     -20102.023     -24889.819      3.4699609     -54290.636    
     39000   2847.9331      1317.8157      10540.67      -14349.448      3.4744418     -54196.581    
     39100   2965.3966      19096.386     -29796.088      3992.5976      3.4731066     -54292.985    
     39200   2974.4527      13671.323     -11865.596     -5407.9063      3.5097602     -54324.624    
     39300   2963.8709      27422.666      28654.741      10399.158      3.5853458     -54310.431    
     39400   3162.4412     -14901.793     -26924.629     -23678.842      3.4043865     -54409.761    
     39500   2833.5045     -10864.129     -13779.949     -12628.914      3.4090153     -54192.944    
     39600   2866.6438     -5657.5798     -5881.6721     -347.56775      3.3945626     -54122.089    
     39700   3456.8709      2029.7862      21133.561      34273.193      3.4325994     -54336.271    
     39800   3216.6896      18427.136     -733.29441      14121.81       3.398887      -54167.581    
     39900   2996.5535     -21242.772     -7928.5212      9593.6108      3.3502533     -54057.702    
     40000   3063.0056     -5109.4053     -11413.838     -12351.233      3.3513685     -54135.593    
     40100   2999.3133     -26681.104     -13691.012      38480.312      3.4068053     -54193.317    
     40200   2927.3559      29285.944      2103.7406      16623.473      3.4313561     -54252.477    
     40300   3138.5405     -14798.873     -9205.2004     -11026.47       3.5045334     -54425.506    
     40400   2565.2312     -18046.243      20786.558      13617.333      3.445501      -54121.271    
     40500   2934.7467      52113.014     -18394.145      28324.616      3.4924367     -54300.676    
     40600   3093.673      -5647.841      -18900.285      13380.956      3.4420002     -54349.772    
     40700   2740.7198     -15132.946     -35898.733     -42305.936      3.3706134     -54104.884    
     40800   3173.7399     -18140.428     -27824.683      13802.687      3.3599015     -54275.633    
     40900   2867.6302     -37882.687      7331.5367      14903.359      3.3622796     -54035.393    
     41000   2771.2406      2398.7354      24536.622      30491.317      3.4585795     -53912.947    
     41100   3194.9095      18939.07      -2370.5777      3381.1778      3.4117685     -54091.82     
     41200   3170.6256      7571.2842      6927.3933     -9459.9364      3.4889152     -54084.811    
     41300   3075.1134     -2370.7489      21935.17      -9716.0868      3.5301647     -54090.664    
     41400   3065.1455     -5512.7222      17495.702     -13784.983      3.4076003     -54229.625    
     41500   2776.4292     -5328.1784      6343.6496      32264.548      3.4633503     -54225.738    
     41600   2926.6178     -347.74013      15265.729      16105.343      3.5107104     -54344.01     
     41700   2761.4888      19250.108     -478.38385      27861.757      3.5736477     -54269.933    
     41800   3138.0146      1564.7789     -5622.3923     -24273.533      3.4398091     -54471.631    
     41900   2680.5873     -20009.69      -7817.3746      8771.3556      3.4076997     -54159.996    
     42000   3300.9237     -9137.8677     -217.7209      -24721.535      3.4291808     -54403.534    
     42100   3063.2478     -22174.48       8384.6054     -37271.717      3.3181188     -54187.231    
     42200   3284.2585     -4534.3042      12497.082      23142.568      3.3506951     -54245.605    
     42300   3225.2973      38722.422      20287.749      23668.947      3.4002236     -54208.773    
     42400   3251.3843      3028.2915      26953.614      34167.373      3.4696727     -54249.73     
     42500   2942.8426      5020.6395      31991.461      34092.47       3.529689      -54104.174    
     42600   2876.1531     -19306.778      11287.679     -3998.1429      3.4021309     -54085.607    
     42700   3309.9408      7093.7647      7340.8889     -3527.2523      3.5479791     -54347.472    
     42800   3214.997       2005.1511     -44306.092      31470.529      3.4663926     -54354.862    
     42900   3137.0264      9580.2156     -23856.799     -33104.6        3.4401562     -54385.632    
     43000   2923.9124      21106.507     -9298.0094      6854.916       3.4923996     -54348.337    
     43100   2913.3453     -8839.249       17739.745      30030.941      3.5312739     -54387.522    
     43200   2976.4878      13972.065     -33586.219     -23301.926      3.5608579     -54448.228    
     43300   2986.7485     -18895.342     -12231.429      16683.037      3.602644      -54429.552    
     43400   2778.9544     -31672.283     -9716.9482      16306.262      3.4878458     -54293.742    
     43500   3080.1427     -8706.9259     -27422.652      5678.6001      3.4622066     -54431.963    
     43600   3052.4539      8933.3341      19214.558     -13624.187      3.4790255     -54394.58     
     43700   2829.6239      16546.253     -32077.889      24221.25       3.3735014     -54235.086    
     43800   2985.7826      8259.6239      7315.4372      22215.52       3.4879253     -54239.546    
     43900   2937.746      -29547.683      7018.3356     -1348.6575      3.4446037     -54150.316    
     44000   2978.8133     -37793.078     -12957.46      -23005.792      3.4525102     -54134.121    
     44100   3115.8387     -7739.574       3337.6623     -252.26447      3.4592367     -54203.187    
     44200   2899.7683      11781.102      38541.928     -236.81723      3.4318888     -54111.143    
     44300   3151.5688     -48633.201     -39274.18      -215.21211      3.3912801     -54297.85     
     44400   2763.646       33915.627      31200.236      24651.452      3.5209887     -54189.308    
     44500   2705.5435      44533.394      25461.142      16882.632      3.4932076     -54214.238    
     44600   3029.3487      4427.7842      7730.5914     -21218.87       3.3937676     -54387.617    
     44700   2925.7465     -1349.8167     -55163.151     -3038.9737      3.4778453     -54263.214    
     44800   2998.7033     -32858.072     -36695.843     -17566.215      3.449597      -54197.931    
     44900   3213.515      -3722.7181     -1980.7368      21316.448      3.4925248     -54214.7      
     45000   3233.834       11548.318      29812.507      22030.363      3.5585687     -54183.35     
     45100   3356.9236      31283.482      17607.021      5379.6126      3.6267485     -54249.568    
     45200   3148.5754      41840.828     -9289.6106      13604.376      3.5013473     -54149.499    
     45300   3190.8745      9203.1938     -12952.265      31737.056      3.6017874     -54212.97     
     45400   3169.322       35313.75      -29759.368      41286.809      3.4584935     -54241.022    
     45500   3005.4173      8866.9859     -3834.2278      24776.126      3.5165911     -54193.147    
     45600   2997.5445      34153.854      11150.815      28677.114      3.5834761     -54218.837    
     45700   3070.8981     -2609.7142      5778.7138      9687.0926      3.5803807     -54282.178    
     45800   2797.2456     -19577.745      9847.9072      557.39958      3.4441323     -54187.443    
     45900   2720.8062     -14298.924     -30174.695     -29298.188      3.4279618     -54225.124    
     46000   2937.6943     -23690.777     -10451.15      -50076.643      3.4841206     -54467.472    
     46100   2824.6022      18055.555     -26040.904     -12794.666      3.5408094     -54505.463    
     46200   2638.6268     -2378.5527     -28812.31      -19169.801      3.5209371     -54482.286    
     46300   2892.9511     -14551.568     -25356.473     -36705.031      3.6234791     -54622.814    
     46400   2826.9747      1118.0902     -20466.487     -17587.814      3.5479877     -54473.168    
     46500   2897.2118      308.90235     -21037.669      32458.485      3.5360756     -54339.749    
     46600   3006.5204      3935.2935      5623.0713      10099.055      3.5629515     -54326.724    
     46700   3083.7192      15750.236      33956.214     -4630.322       3.565528      -54315.22     
     46800   2955.6248     -14835.22       11808.877     -10630.44       3.5141334     -54201.462    
     46900   3012.3946      648.46112     -19503.059      31132.839      3.6418504     -54182.772    
     47000   2962.4083     -14412.171     -70576.745     -20798.877      3.4595773     -54141.558    
     47100   2896.8979      34209.684     -10660.439     -32220.718      3.4985477     -54128.948    
     47200   3063.9238      13373.213     -4433.4611      37997.1        3.6105496     -54274.634    
     47300   3036.3528      33693.655     -14841.556      32719.875      3.5955737     -54368.094    
     47400   2893.2026      33721.838      23345.687      27800.901      3.6340313     -54396.781    
     47500   2950.5855     -6732.2749      34615.102      12359.022      3.5969277     -54486.803    
     47600   2727.4021     -2463.1402     -3997.0187      21657.373      3.5880606     -54377.041    
     47700   3036.5358      24987.578      1574.6337     -1113.8339      3.6063908     -54511.089    
     47800   2944.6648      9300.4309     -17178.977      4180.4438      3.6941166     -54387.789    
     47900   2749.4087      30958.91      -9451.2644      38928.127      3.6202797     -54188.825    
     48000   2981.1974      13556.568     -2780.8315     -6486.9693      3.5205222     -54227.549    
     48100   3136.5833      6225.8298      42719.967      32241.472      3.5928053     -54278.509    
     48200   2916.4174      21545.352     -2250.7792      3924.6127      3.5480444     -54140.373    
     48300   2894.5436      33821.791     -46496.399     -7885.2885      3.566815      -54132.888    
     48400   2913.4254      7566.4588     -12556.535      3110.1608      3.579074      -54147.496    
     48500   3149.629      -8006.7468     -3696.6113     -2219.8885      3.4599352     -54261.318    
     48600   3057.1118     -4488.9917     -15408.992     -856.80126      3.4192444     -54190.133    
     48700   2902.6604     -10659.49      -30168.652     -41995.903      3.4148674     -54079.478    
     48800   3242.4455      1938.5073     -3806.7027      390.52359      3.419484      -54254.842    
     48900   2919.8805     -56251.841      17750.641      20381.869      3.4300355     -54077.164    
     49000   3015.8701     -32752.921     -19244.412     -45529.399      3.4349747     -54170.319    
     49100   2946.4273     -7498.6475     -8561.3481     -31072.42       3.4993829     -54194.19     
     49200   2800.581       12267.872     -10507.548     -7081.4789      3.5162325     -54201.757    
     49300   2846.6805      7961.6549     -11126.079      12273.189      3.5347006     -54297.91     
     49400   2846.3075     -16431.641      17384.656     -30196.565      3.4725529     -54354.226    
     49500   2730.5418      3940.2761     -16250.164     -22124.268      3.4272        -54326.073    
     49600   2735.5059      3042.2963     -24171.212      11089.279      3.4169505     -54275.298    
     49700   2941.1932     -13048.016     -3686.8416     -1033.1064      3.4721111     -54224.472    
     49800   3266.8059      1555.4007      4929.6644     -38873.236      3.5067903     -54301.56     
     49900   3287.4375     -2532.1227      859.24128      17154.919      3.4485163     -54272.593    
     50000   3038.4987     -9193.0507     -9664.8734     -18205.864      3.3970608     -54152.398    
     50100   3063.7264     -18571.105     -35969.804     -26726.898      3.3550307     -54202.885    
     50200   3044.7859     -3351.1533      1654.5118     -913.30752      3.3202114     -54241.161    
     50300   2931.178      -43087.765      3372.89       -10836.236      3.3655558     -54242.906    
     50400   2834.9666     -9229.6537     -25030.99      -5470.559       3.3964317     -54234.696    
     50500   2763.3478      20613.323      2512.2518     -8291.4162      3.4220307     -54213.578    
     50600   3028.9446      15392.043     -10858.94       10606.744      3.3510189     -54306.609    
     50700   2755.8899      8531.9528      18681.196      6476.9324      3.3906456     -54021.655    
     50800   2949.3355     -23382.25      -6948.314      -460.00831      3.2663932     -53982.775    
     50900   3042.5228     -8158.849      -32152.038      4707.1494      3.3208281     -53978.39     
     51000   3236.0837     -18378.7        553.38706      1438.524       3.3136518     -54047.615    
     51100   3195.1576      9921.0272      19202.505      296.48116      3.2953568     -54044.354    
     51200   2948.645       5843.7529      7130.6689      26240.656      3.3086633     -53960.533    
     51300   3177.3563     -25649.588     -35492.36      -32158.925      3.2012631     -54152.914    
     51400   2969.1258     -20105.574      2236.9373     -13277.372      3.2379189     -54130.143    
     51500   2899.1626      12469.805      13146.561      65759.801      3.3808405     -54170.313    
     51600   2725.1721     -12103.942      7857.8311      642.07373      3.2939818     -54129.893    
     51700   3011.4109     -9888.2896     -16527.143     -14529.234      3.3274375     -54336.376    
     51800   2759.5453     -6430.6241      4091.4591      6776.6199      3.3270837     -54250.515    
     51900   2867.3937      8870.503      -6008.4629      29495.695      3.282312      -54378.693    
     52000   2811.6017      731.35681      1181.0752      24701.507      3.3708613     -54353.342    
     52100   3001.5378      19189.703      1500.0367      52633.111      3.4938533     -54403.118    
     52200   3086.8034     -11572.207     -7990.4913      47599.887      3.4996765     -54329.713    
     52300   2839.8564     -12792.714     -6764.4885     -23943.387      3.3782385     -54096.927    
     52400   2928.7388     -22101.555     -3665.6886     -18150.393      3.3576556     -54057.294    
     52500   2804.9162     -35574.661     -38289.411     -26861.023      3.2411206     -53925.5      
     52600   3259.3598     -18788.721     -37072.426     -45164.887      3.2540932     -54123        
     52700   3276.7186     -54814.283     -45651.061     -10816.616      3.3566316     -54099.955    
     52800   2956.8682     -3231.6208      6421.2414      20528.131      3.4128728     -53925.689    
     52900   2951.5292     -3854.9788     -16132.935     -3500.1982      3.3324407     -53973.718    
     53000   2935.5313      27361.375     -19705.057      7419.6271      3.4881691     -54066.658    
     53100   2804.9072      22717.83      -16998.358      34740.33       3.4763553     -54168.943    
     53200   2816.3025      4368.208      -10281.557     -4757.3256      3.4881565     -54252.147    
     53300   2932.4238     -16649.84      -22337.469     -24548.566      3.4768942     -54316.752    
     53400   2742.2803     -38502.394     -30440.525     -15785.829      3.4132394     -54174.589    
     53500   2884.1444     -15645.926     -25664.247     -6255.754       3.4090541     -54203.316    
     53600   3091.4029      34332.488     -16239.658      16672.743      3.5227001     -54250.002    
     53700   3240.4216      13543.687     -22810.347      24786.038      3.4993705     -54257.23     
     53800   3217.6774     -22945.999      309.26485     -37360.815      3.3962244     -54200.519    
     53900   2864.4125      8093.776       9133.8065     -14713.812      3.389032      -54007.159    
     54000   3034.3615      5131.4056      30413.665     -28183.306      3.4528061     -54137.271    
     54100   2918.4331      858.40492      3977.6245     -6256.5592      3.4546359     -54146.486    
     54200   2738.589      -26130.169     -29299.931     -18667.316      3.4151652     -54129.279    
     54300   2832.4473     -36139.322     -28137.841     -4200.3388      3.499896      -54223.128    
     54400   3022.2525     -4090.9827     -44624.555      7077.9758      3.5296712     -54332.914    
     54500   2900.019      -42104.162      8344.3697      7827.5936      3.5627939     -54276.757    
     54600   2739.0219      23769.12      -2761.4852      17322.314      3.5337477     -54180.957    
     54700   2993.8408      1687.7595      46763.14      -3207.6554      3.5034749     -54236.252    
     54800   3144.3972      8560.0922      44890.853     -9828.5665      3.453955      -54186.435    
     54900   3041.5597     -19085.842     -8425.7651      10589.425      3.3781888     -54069.758    
     55000   3258.7457     -28488.217     -47813.69      -15419.955      3.3575959     -54193.636    
     55100   2839.966      -9354.7774     -26284.469     -21775.157      3.3113818     -53995.054    
     55200   2893.2375     -35829.302     -6282.5097      11335.671      3.3030546     -54065.961    
     55300   3144.5037     -7144.1355      579.14496      1215.4519      3.3888344     -54287.365    
     55400   2721.4824     -10944.654     -14596.647     -993.40003      3.4148947     -54225.648    
     55500   2853.5442     -17527.479     -35919.337     -35615.736      3.3251772     -54371.822    
     55600   2785.4514      36653.307      4527.177      -23957.444      3.488826      -54335.387    
     55700   2908.1535      16933.151      12755.31      -20249.381      3.4433726     -54374.309    
     55800   2579.7987      14895.728      15283.523      6821.4112      3.4022169     -54126.346    
     55900   3024.0588      24098.951     -1689.5331      18126.863      3.3863034     -54276.854    
     56000   3153.9222      47666.098     -11995.948      7782.8492      3.4318192     -54280.38     
     56100   2791.9491      2404.5535     -5915.3776     -39951.362      3.2880936     -54043.223    
     56200   3262.6699     -37494.57      -38016.488     -42434.696      3.347951      -54271.153    
     56300   2942.8746     -9122.8741     -27057.836     -18182.359      3.3659221     -54079.841    
     56400   3213.2834      9167.3664     -35877.238      21214.459      3.4575832     -54255.705    
     56500   2731.7707      8032.6335     -21008.572     -5006.1291      3.4182207     -54103.176    
     56600   2689.7673      9349.2783     -8973.2368     -23237.595      3.4685731     -54225.936    
     56700   2711.9101     -26282.688     -41390.504     -33700.128      3.380278      -54276.205    
     56800   2875.8267     -24817.514      47059.451     -6611.9697      3.4627542     -54336.648    
     56900   2768.2115      26691.476      9977.1782      1981.9057      3.4139838     -54240.727    
     57000   2840.5769      4718.1535      1714.7589      9700.235       3.3893273     -54232.91     
     57100   2937.5923      29408.538     -2102.113      -16026.895      3.4215439     -54218.193    
     57200   3000.7713      19393.104      9347.6865     -24372.76       3.4907263     -54195.136    
     57300   2900.2389     -982.06748     -6025.3608      6550.6347      3.3687931     -54089.685    
     57400   3258.4369      28597.563      43522.339      11318.855      3.4039973     -54229.682    
     57500   3124.263      -11018.515      9299.5439     -12633.525      3.3355013     -54097.223    
     57600   3404.194       28410.578      33099.235     -3796.9231      3.4007774     -54179.444    
     57700   3171.9076      19263.141      35821.881      39790.252      3.4041116     -54005.786    
     57800   3184.4514      17844.641      59611.362      33012.104      3.3817419     -54011.649    
     57900   3057.4723      16570.804      5675.3358     -4375.2452      3.3727815     -54013.758    
     58000   2984.7438     -20286.525     -1030.2481     -15678.805      3.3916637     -54091.179    
     58100   2732.6157     -33528.403     -14862.971     -10425.815      3.4426659     -54049.516    
     58200   2761.0119     -20161.937     -31949.837     -15190.277      3.3650772     -54123.514    
     58300   3016.3148     -6883.9639     -16700.807     -7202.643       3.4736608     -54269.587    
     58400   2896.5052     -7084.7398     -6294.8519      9205.2965      3.611852      -54171.087    
     58500   2893.944      -11880.306     -2403.5123      40638.193      3.5617197     -54138.246    
     58600   2814.6058     -9866.2271     -24065.187      41054.489      3.4743679     -54048.731    
     58700   3162.2976      17943.769      42899.541      70178.782      3.5569612     -54143.557    
     58800   3625.1628     -2494.8397     -5589.5017      9632.8436      3.4484077     -54282.102    
     58900   3183.6858      8262.4308      3329.6991     -13164.167      3.4675056     -53974.59     
     59000   3384.3015     -38971.893     -14678.235     -9333.3708      3.4865097     -54061.822    
     59100   3033.2205     -4739.448      -6872.0853     -25278.477      3.3636512     -53933.91     
     59200   2937.8797      9780.2617      1388.312       1178.0607      3.4426708     -54037.617    
     59300   3093.7901     -2759.5113     -6965.0811     -35001.918      3.4256379     -54258.548    
     59400   2902.9736     -17133.038      4093.9979     -26255.586      3.3672391     -54200.733    
     59500   3089.4141     -15565.635     -34328.101     -52429.565      3.389542      -54315.143    
     59600   2885.2761      57085.939     -23282.292     -33257.278      3.4556804     -54199.46     
     59700   2834.5674      43098.36       16928.854      73250.101      3.5140215     -54131.352    
     59800   3113.7384      35955.76       43405.474      35814.993      3.5099993     -54180.099    
     59900   3187.8994      21132.234      41163.867      6449.5621      3.4581583     -54132.549    
     60000   3257.147       42492.936      57841.685      24045.284      3.5055881     -54128.878    
     60100   3251.3066      22783.06       24120.419      21103.503      3.3964008     -54133.294    
     60200   3244.071       41095.986      90474.132      17344.158      3.5033359     -54228.873    
     60300   3162.7383      20927.404      7654.668       4254.6117      3.5506624     -54371.419    
     60400   2998.9039     -7252.1585     -27547.561     -29153.959      3.4448319     -54360.354    
     60500   3013.6653     -15660.893      5443.5047     -31765.706      3.3609436     -54389.649    
     60600   2863.455       38347.388     -1413.9143      1918.0022      3.4809061     -54305.76     
     60700   2985.4788      24135.481      2777.938       25213.334      3.5449285     -54336.921    
     60800   2931.2143      7829.5294     -16009.935     -13864.919      3.4585677     -54225.802    
     60900   3071.1931     -16227.433     -20419.415      563.77223      3.460439      -54209.531    
     61000   3177.6871      15717.175      23298.715      26732.207      3.5262068     -54209.625    
     61100   3100.8951     -8920.0167     -6636.4376      31471.771      3.4936434     -54156.063    
     61200   2918.595      -56547.884     -51753.815     -21614.245      3.4042542     -54089.961    
     61300   2914.0134     -18071.845      7410.4123     -6461.6027      3.4509376     -54184.882    
     61400   2762.4348     -6120.7929      23727.226     -28572.39       3.5236351     -54294.27     
     61500   2758.5042      17859.11       3175.1465     -3190.8637      3.4655874     -54362.244    
     61600   2832.1619      2205.8749     -47938.884      6285.9845      3.3805354     -54391.595    
     61700   2953.071       14134.819     -42425.855     -12659.369      3.3405645     -54393.403    
     61800   2803.2542      17132.566     -6484.7406     -17171.44       3.4028227     -54216.059    
     61900   2990.5723      17221.309     -16212.437     -7949.7312      3.3959257     -54237.923    
     62000   3023.0452     -86.528582     -38505.927      38181.963      3.360853      -54200.14     
     62100   2963.4593     -10627.98      -3591.6897     -15185.032      3.3232305     -54148.514    
     62200   3056.95       -1340.8132     -27460.811     -19866.424      3.3125486     -54165.93     
     62300   3000.3084      8395.7232     -46036.392     -9711.4364      3.239472      -54106.989    
     62400   2852.3646     -6535.5181     -23392.593     -12532.034      3.2892343     -53993.424    
     62500   2863.7269      14541.105     -31707.339      8039.1196      3.2696011     -53894.263    
     62600   3317.5051     -19454.453     -7672.2188     -28796.99       3.2792452     -53993.297    
     62700   3173.1309     -8641.0237     -32022.481      10468.033      3.3169083     -53870.532    
     62800   3488.9213     -12938.571      7926.5563      15624.437      3.4161462     -54093.745    
     62900   3230.1799      14470.308     -6236.8503      7409.4345      3.3193156     -54108.923    
     63000   3181.2625      35502.71       19190.915      15746.811      3.4597572     -54177.344    
     63100   3125.2761      33455.95      -8678.4784     -16219.583      3.3594063     -54226.182    
     63200   2904.7408      10097.938     -2554.3802      14031.25       3.3498542     -54142.951    
     63300   2774.9724      25293.251      6217.5841     -1795.4778      3.4305738     -54084.153    
     63400   3037.2069      12488.59      -28027.832     -340.98402      3.4606026     -54223.119    
     63500   2949.8844     -14381.387     -21896.138     -2058.2064      3.3452272     -54152.071    
     63600   3116.9856     -26719.968     -14222.278     -17084.314      3.3661281     -54205.869    
     63700   2950.0642      40389.407      29514.386      19126.989      3.4761599     -54062.631    
     63800   3021.3045     -25741.079      8567.4135      10202.282      3.320803      -54018.856    
     63900   3055.945      -21722.76       23563.227      33313.087      3.3243058     -53934.694    
     64000   2981.6192      6446.824       4831.3263      13219.987      3.3357317     -53851.199    
     64100   3089.0968     -24312.104     -13819.175     -8827.9958      3.3411069     -53940.781    
     64200   3035.6944     -979.39287     -16372.335     -8838.728       3.3067738     -53983.97     
     64300   2931.2972      816.73639     -14801.495     -16570.75       3.2607679     -54065.437    
     64400   2832.6831      1398.1483      2745.6043     -1125.6523      3.3872662     -54131.892    
     64500   2977.3366      9472.9344     -1821.2108     -254.33877      3.4675324     -54244.163    
     64600   3101.7945     -3989.622       1379.8438      27798.104      3.4232996     -54323.808    
     64700   3066.3439      10359.746      19199.626      11921.287      3.5384643     -54305.683    
     64800   3084.2225      8566.2877     -1443.9273     -15165.17       3.4878412     -54335.995    
     64900   2811.4502     -30393.771     -27724.141     -24482.604      3.4507678     -54206.839    
     65000   2886.4336      4199.697       16682.015     -19059.818      3.52206       -54268.259    
     65100   2871.0304      35645.074      41507.29      -18026.276      3.5520252     -54257.661    
     65200   2772.2352      800.30088      26965.292      6496.0728      3.4222697     -54140.63     
     65300   3037.8377      8907.54       -8713.8139     -23542.029      3.3222317     -54181.321    
     65400   3196.4208     -15634.929      6273.0932     -23844.106      3.3639262     -54177.353    
     65500   3277.1877      11340.898      3756.8974      15630.397      3.5180791     -54165.203    
     65600   3053.3134     -4184.5538     -3061.674       12412.242      3.4883255     -54048.143    
     65700   2987.6479      36409.138     -23191.703     -10492.209      3.4204192     -54087.421    
     65800   2915.6456      10785.307      29306.923      15787.801      3.4614866     -54166.145    
     65900   2851.8077      60347.482      11353.1        8450.917       3.4092002     -54188.116    
     66000   3063.3499      10002.104      20320.888     -21848.453      3.4867502     -54327.409    
     66100   2910.1904      18893.274      8353.5144     -5897.976       3.4765814     -54253.971    
     66200   2932.3254      3792.2279     -49319.278     -58139.875      3.4003743     -54248.762    
     66300   2927.5657     -23980.092     -41633.721     -31311.07       3.3955677     -54237.541    
     66400   2905.9553     -12812.17      -25811.596     -36472.088      3.4217949     -54225.252    
     66500   2927.3991     -18222.14      -23832.179      2189.6317      3.5001926     -54229.632    
     66600   2988.7226     -4410.0156     -19180.736      12621.449      3.4956652     -54256.884    
     66700   2778.419      -31501.38       9085.3843     -9196.1447      3.425752      -54146.521    
     66800   3159.7317      18912.848     -10580.772     -18707.327      3.4019184     -54340.858    
     66900   2933.4701     -4088.9116     -4668.2369     -22508.917      3.4196228     -54194.505    
     67000   3202.6306     -10238.362      16435.212     -5896.197       3.4717381     -54194.176    
     67100   3135.0127     -11870.741     -12444.048     -7048.7791      3.3622868     -54011.881    
     67200   3236.7308     -12726.164      10601.969      12359.133      3.3690096     -54007.335    
     67300   3195.7843     -3711.7038     -11729.116      29820.284      3.4275175     -54007.851    
     67400   3177.788      -5739.2626      23384.847      6982.7022      3.3555403     -54095.918    
     67500   2969.679      -37850.463     -31647.79      -19963.147      3.3081517     -54095.731    
     67600   2955.4715      1049.6419      4023.719       34703.284      3.4658559     -54150.998    
     67700   3017.5894      6734.2032      4474.394       25608.238      3.4719458     -54226.424    
     67800   3272.076       21911.182      8661.7334      7830.4912      3.5199268     -54404.716    
     67900   2728.3065      35219.909      26254.873      15868.707      3.5338049     -54149.862    
     68000   3035.1083     -20571.815      39874.902      10427.354      3.4967798     -54357.607    
     68100   3122.1666      2295.3462     -18001.853     -9054.225       3.4087696     -54459.491    
     68200   2577.1203      14369.785     -7240.0082      36924.358      3.3053933     -54231.035    
     68300   2855.3928      20249.98       33443.152      14255.804      3.4394715     -54428.086    
     68400   2781.3248      12050.92       7995.147      -37956.687      3.4516507     -54365.974    
     68500   2763.4973     -10764.678      10591.716     -51433.027      3.3438264     -54245.515    
     68600   2882.398      -33878.719      21053.799     -1865.132       3.3657864     -54188.196    
     68700   3054.8667     -14202.102     -11670.191      2407.6235      3.4116279     -54200.793    
     68800   3102.3633     -36046.98      -5422.3477      1706.9625      3.4144521     -54208.234    
     68900   2993.3242      25873.814      51114.939      23966.243      3.4641011     -54173.933    
     69000   3323.2818      15120.148      9041.7933      26611.944      3.4632863     -54363.177    
     69100   2969.0717     -13167.797      645.78518      16064.989      3.5193471     -54220.445    
     69200   2745.0105      34043.516     -9027.1737      17722.586      3.4767985     -54144.018    
     69300   2932.6975      13205.388      18476.115     -30420.455      3.4472937     -54317.122    
     69400   2732.9255      32031.479      37052.691     -1916.6147      3.5287171     -54290.022    
     69500   2761.641       11090.491      19420.733      328.79541      3.4785812     -54370.981    
     69600   2426.9869     -29423.132     -25663.775      15231.915      3.3535565     -54212.911    
     69700   2348.9254     -20466.109     -33242.676      2189.5687      3.4113808     -54129.181    
     69800   2885.5941      17517.357     -9844.0615      39683.336      3.4082212     -54269.272    
     69900   3003.6062     -1602.9165      30977.337     -3459.2558      3.4260281     -54234.635    
     70000   2939.6259     -9315.4505     -31699.028      29021.706      3.38944       -54131.178    
     70100   3080.8886     -23896.747     -26323.96      -14765.693      3.3152546     -54144.167    
     70200   2917.1269     -10026.583     -14443.696     -16020.671      3.3202488     -54007.565    
     70300   3080.5955      27660.786      5811.3234     -13680.415      3.3191992     -54058.466    
     70400   3037.1967      15820.437     -17251.827     -6707.3382      3.3646762     -54018.868    
     70500   3428.6133     -10382.64      -15725.361      7725.2857      3.4419011     -54265.195    
     70600   2964.8959      10616.013      38769.039      32787.961      3.5164463     -54103.541    
     70700   2783.2772     -652.69123      5192.8591      10493.868      3.4595995     -54133.165    
     70800   2854.4646      20650.216      26008.367     -11870.438      3.4962917     -54229.036    
     70900   2869.1352     -20631.469     -7566.4287      16192.147      3.4140788     -54255.396    
     71000   2898.4865     -30452.983     -39160.604     -20028.553      3.3944057     -54262.128    
     71100   2983.5678     -9333.3297     -15440.278      17908.654      3.5829845     -54301.504    
     71200   2858.2299     -18912.74      -19498.325     -966.70973      3.5028264     -54234.86     
     71300   3006.4145     -15993.266      40430.813      7290.6083      3.5622864     -54281.912    
     71400   3325.1833      11884.57       35458.261      29984.049      3.5176548     -54315.831    
     71500   3254.802       21517.016      41764.227      24474.175      3.4698739     -54122.305    
     71600   3322.3458      51084.728      41229.345      49422.125      3.4259028     -54066.72     
     71700   3178.3789      9002.0626      17656.39       19840.406      3.3905895     -53983.107    
     71800   3242.8108     -35601.033     -35147.937     -16754.469      3.2608847     -54065.558    
     71900   2896.0728     -3356.9793      30630.958      3004.2762      3.3604645     -53931.02     
     72000   2880.0416     -8799.3632     -25598.706      2163.9956      3.4155506     -54005.494    
     72100   3136.705      -19812.204     -19912.876      22819.422      3.4266381     -54249.382    
     72200   3214.924      -29866.537     -11111.576      3517.9993      3.4987924     -54365.087    
     72300   2939.8817      76264.613      28574.636      53614.023      3.5714895     -54207.575    
     72400   3190.5604      19655.798      14015.853      18812.031      3.6238863     -54346.697    
     72500   3035.5581     -14947.296      764.76528      9622.6299      3.5510677     -54251.716    
     72600   2956.0026     -13624.361      195.06603      29721.815      3.5641648     -54202.633    
     72700   2993.286       32504.634     -5069.2695     -12960.899      3.4892645     -54218.798    
     72800   2912.4367     -6355.7846     -8067.9516      32875.282      3.4843142     -54178.089    
     72900   2807.5395     -12883.626     -31220.289     -10157.156      3.4176436     -54143.003    
     73000   2882.7522     -7207.7794     -12863.85      -13808.096      3.4933849     -54212.185    
     73100   2910.1877     -11929.646     -38100.373     -23911.218      3.4897673     -54280.061    
     73200   3080.1504     -29973.214     -13984.271     -32254.919      3.5020719     -54441.763    
     73300   2720.2288     -9817.1125      22137.466     -19840.372      3.4797791     -54297.384    
     73400   2722.8837     -2125.8195      1774.0289      18824.512      3.478201      -54317.349    
     73500   2708.6605     -24932.584     -23347.787     -30298.245      3.3558431     -54248.81     
     73600   3279.8287     -17619.293      31095.768     -27466.022      3.4832463     -54435.062    
     73700   3199.8926      22809.197      18437.298     -21401.573      3.4551486     -54305.765    
     73800   3065.3432      19456.091      23495.926      8014.9527      3.4070157     -54216.087    
     73900   3007.3042      24234.566      35336.635      12343.667      3.4167881     -54177.944    
     74000   2919.6918      14904.951      4471.3814      14491.806      3.3828451     -54120.182    
     74100   3103.1696      19920.136     -1814.4128      21209.471      3.4067964     -54214.193    
     74200   3122.8481     -9473.5164      23886.422      17240.079      3.3856784     -54219.173    
     74300   2793.6556     -15481.093     -9365.207       4796.1028      3.2581338     -54050.771    
     74400   3128.9729     -32209.683     -27784.414     -18904.412      3.292461      -54266.752    
     74500   2925.3775     -4722.9672     -3334.9472      623.93215      3.3099667     -54206.957    
     74600   3199.7814     -18223.589      4920.2413      7572.5583      3.3283674     -54424.91     
     74700   2814.7791      4142.7271     -14462.036     -10459.304      3.3357433     -54283.098    
     74800   2958.3552      25549.778      33338.057      25851.64       3.4360574     -54413.916    
     74900   2877.4109      11807.353      18219.158      58555.051      3.4746246     -54407.261    
     75000   2554.0628      3446.5223      10441.968      29302.08       3.4345397     -54236.503    
     75100   2902.7402      13087.433     -5257.2927     -6850.32        3.4056719     -54351.493    
     75200   3166.0485      53297.327      5893.4351      12673.049      3.4468699     -54341.797    
     75300   3045.0799      31345.234     -17870.334     -11658.574      3.2918473     -54186.75     
     75400   3056.3836     -2184.7207     -3713.3027      28548.638      3.4210038     -54139.234    
     75500   3138.6822      10723.258     -15757.465      10312.345      3.3742333     -54167.29     
     75600   3075.7546      40731.27       40586.37       41406.422      3.4174716     -54133.591    
     75700   3032.0803      21086.953      37513.173      8670.5014      3.3584746     -54145.743    
[...]
    382300   2807.7572      8782.239      -732.99294      27424.225      3.5684418     -54378.469    
    382400   2975.8431      8103.4394      3785.1995     -38137.497      3.5312473     -54490.805    
    382500   2871.4962     -1031.7545     -18646.893      16257.48       3.5765568     -54430.458    
    382600   2891.263      -9218.6439     -1416.044       53244.099      3.5812186     -54389.874    
    382700   3368.4845      37951.684      42824.536      28236.953      3.683804      -54473.475    
    382800   3329.1527      43063.478      23665.439      7534.2609      3.498882      -54316.81     
    382900   3269.926       34978.475      40737.264      39473.64       3.6083218     -54287.022    
    383000   2917.783       8857.2739      51068.947      2614.9626      3.5419314     -54140.796    
    383100   3098.4206      3458.1663      30052.954      33796.322      3.5769436     -54308.298    
    383200   3167.2062      18542.217     -22837.226      5975.4867      3.6223942     -54415.154    
    383300   2900.2879      7375.5914      18714.497     -12040.938      3.5348016     -54357.89     
    383400   2976.3523     -9850.2755     -2412.5492      37359.09       3.6142637     -54445.75     
    383500   2699.3028      12430.613     -338.49163      39673.2        3.6458602     -54318.385    
    383600   2772.6474     -32015.857      7579.2523      10667.23       3.5618475     -54356.359    
    383700   2921.3087     -27232.416      28656.258     -13670.829      3.5970779     -54362.204    
    383800   2834.9682      13881.211      17424.319      8315.4347      3.6512173     -54097.672    
    383900   3327.7564     -1709.6687      22780.652     -1269.7368      3.5693943     -54284.789    
    384000   3125.1499     -8930.4445      41595.164      14567.189      3.608088      -54172.098    
    384100   3145.3793     -7778.803       6546.3625      8286.8722      3.5288221     -54217.64     
    384200   2990.8484      38816.029      33814.737      23854.973      3.5431077     -54181.007    
    384300   2650.6503      41646.385      27963.264      14008.561      3.5320751     -54042.132    
    384400   3022.7289      33228.709     -12279.451      51385.691      3.5371852     -54297.935    
    384500   2774.8165     -33623.395      11943.651      32193.563      3.4490282     -54203.364    
    384600   2879.3181     -24432.315     -6154.6708      20148.035      3.493023      -54255.964    
    384700   3067.3548     -7322.1453      498.67348      22896.933      3.4615019     -54298.374    
    384800   3067.2913      13588.105     -3807.3041      4638.4943      3.4117222     -54198.787    
    384900   3232.2236      27490.951     -6789.3878     -15995.253      3.3952382     -54204.773    
    385000   3094.1888      54516.811      8246.2703      4788.1601      3.4754925     -54086.191    
    385100   3223.2683      13972.37       28472.968     -31355.865      3.4600204     -54166.622    
    385200   3116.7164     -1045.1287      9945.1439     -39949.474      3.3721287     -54231.135    
    385300   3050.1098     -3378.6908     -20754.128      16569.423      3.5366716     -54357.663    
    385400   3043.9292     -22747.205     -5098.9916      855.03824      3.4933533     -54437.613    
    385500   2582.7634     -4950.1224     -585.64851     -8655.7584      3.4658809     -54194.97     
    385600   2859.6157     -19190.074     -42887.017      1632.0386      3.4775936     -54338.382    
    385700   2760.6662     -31915.063     -14559.824     -154.42568      3.4342985     -54231.034    
    385800   2961.5117     -18058.17      -1053.7006     -349.90724      3.3651105     -54255.058    
    385900   3162.6673     -14407.594     -22264.686      3951.6069      3.3654099     -54286.302    
    386000   3060.411       51479.998     -5347.1976      20480.078      3.50425       -54161.94     
    386100   3302.5097      6702.4834      30690.408      19223.707      3.5483771     -54253.971    
    386200   3028.9369     -3229.8487      32033.024     -627.70214      3.5416489     -54112.65     
    386300   3064.8136     -3813.5518      65066.701      14095.373      3.5749827     -54144.374    
    386400   3227.1067     -1805.869      -22212.92       15591.648      3.4556844     -54266.14     
    386500   3063.5392     -9538.7422     -28106.528      839.44336      3.409856      -54217.608    
    386600   3045.3106      4139.1657      15756.482     -7171.269       3.4199474     -54235.256    
    386700   2805.4648      16286.391      11843.782     -4751.1539      3.3120509     -54104.557    
    386800   3144.7855     -14421.275      2503.4943      19666.513      3.3626354     -54272.691    
    386900   2898.3829     -11554.567     -38213.474      9459.3672      3.3692401     -54105.434    
    387000   3051.1254     -18735.871     -31312.571     -16226.778      3.3314978     -54119.844    
    387100   3084.2564     -12892.936     -159.28768      5106.2751      3.3148294     -54020.667    
    387200   2977.6079     -11746.896     -10332.741      14602.647      3.2627512     -53844.06     
    387300   3108.281      -20949.196      26088.559     -15976.028      3.2614055     -53867.515    
    387400   3205.5665     -1564.7061     -13980.305     -17832.849      3.1873018     -53924.586    
    387500   2983.6203     -5995.618      -11720.695     -37325.709      3.2016163     -53877.687    
    387600   2858.8166     -28716.491      318.62975      4224.801       3.2955089     -53897.644    
    387700   2736.8739     -28601.447      2052.3417     -28585.53       3.2341889     -53901.115    
    387800   2847.5324     -38603.856     -25470.434     -13032.489      3.2536209     -54011.712    
    387900   3165.6042     -12269.004      14311.481      2149.4653      3.3836299     -54247.113    
    388000   2975.1595     -7932.6873      2355.7292      21890.118      3.3361374     -54246.954    
    388100   2643.2731     -8449.0217      298.26109      7678.7895      3.3407345     -54199.744    
    388200   2692.3415      27803.981     -3439.9195      4402.6239      3.4777489     -54360.724    
    388300   2805.6942      4782.7409     -9453.6163     -2547.9005      3.4860558     -54462.779    
    388400   3000.2922      44351.901     -4891.6662      39951.828      3.6530011     -54558.273    
    388500   2996.2212     -3922.0692     -29494.64      -5511.0527      3.5089019     -54525.38     
    388600   2791.0589      30221.082      2957.8856     -16026.329      3.6303034     -54386.489    
    388700   2784.1449      165.92665     -2179.3874      23791.076      3.6122672     -54344.548    
    388800   3044.8401      10276.378     -25067.878     -8854.9243      3.5036886     -54425.169    
    388900   2884.4004      9422.5113      58005.934      19948.154      3.4780179     -54251.08     
    389000   3243.7776      11413.333      33897.401      16057.734      3.5241271     -54349.468    
    389100   3148.5509     -12545.837      6951.7788     -875.97297      3.5131922     -54264.84     
    389200   2567.0059     -20994.413     -8124.647       11675.429      3.4158482     -53899.839    
    389300   3062.385       8521.4211      13436.731     -22328.5        3.4671641     -54128.199    
    389400   3031.0132      17142.078     -3054.7943     -12872.763      3.5353184     -54079.122    
    389500   3342.032      -13533.049     -28819.881      6971.2046      3.5757609     -54265.74     
    389600   3189.0067      1066.5983      11327.222     -37909.988      3.5544071     -54229.932    
    389700   2857.2476     -30191.316     -4118.8849     -7093.7017      3.4516572     -54091.623    
    389800   2821.4637      5408.1083     -6805.296      -9043.0383      3.4017624     -54122.68     
    389900   3214.942      -28753.483     -49851.38      -44013.78       3.3767156     -54345.963    
    390000   2982.1207     -28697.375     -17732.354     -19457.008      3.3996021     -54245.969    
    390100   2960.83       -8765.5126     -7902.4649     -20216.645      3.3810184     -54238.155    
    390200   3076.8928      13775.479      25429.893     -2045.0366      3.4750494     -54270.704    
    390300   2942.6219      23697.561      27870.226     -566.46811      3.4634668     -54079.829    
    390400   3498.9681      13258.014      58581.611      37523.636      3.5644743     -54198.173    
    390500   3429.5062     -3767.7772      5420.963       17358.384      3.4209645     -54102.117    
    390600   2945.8662     -9294.8746      9604.037      -35510.248      3.364941      -53872.419    
    390700   3402.8579     -13399.188     -9417.9948     -14781.988      3.4449782     -54208.818    
    390800   3176.8151     -9991.3644      16474.334     -30176.143      3.3909503     -54222.471    
    390900   2845.2579      767.20116     -23454.449     -36810.093      3.3826041     -54125.466    
    391000   2965.2042     -29598.564     -3051.7705     -28590.43       3.4713233     -54226.648    
    391100   2932.7485      19089.955     -43523.315      5770.6771      3.4777196     -54241.649    
    391200   2710.0797      12678.646     -9595.8069      3691.9355      3.3745865     -54122.693    
    391300   2956.6913      17339.957      13343.455     -22480.22       3.3514524     -54214.6      
    391400   2726.5751      10450.727     -17888.683      17388.905      3.3358999     -53988.177    
    391500   3138.3436     -168.37915      27233.29       23970.258      3.4428235     -54090.969    
    391600   2956.6211      7279.6152     -20934.016      13879.117      3.3324102     -53935.837    
    391700   3267.8662      16142.322     -37600.342      6596.9954      3.3592444     -54122.447    
    391800   3177.6597      3485.9352     -5083.4932     -16457.874      3.4585472     -54132.783    
    391900   2987.183       48273.864      20905.577     -10209.684      3.4483364     -54085.415    
    392000   3059.2164      5333.4108      15509.259      782.36176      3.4578236     -54184.672    
    392100   2986.0945     -19568.592      27474.574      2077.4581      3.4625217     -54195.443    
    392200   2993.5864     -44334.141     -18375.259     -32264.648      3.4136863     -54255.239    
    392300   3019.0619      11658.744      19474.201     -5278.9083      3.4433438     -54321.6      
    392400   2966.9351      16435.565      20452.442      9633.9773      3.5229637     -54311.45     
    392500   2757.6464      16207.212     -10785.45      -4771.5833      3.4193384     -54192.77     
    392600   2737.3931      13442.703     -14099.454     -9579.591       3.372596      -54154.996    
    392700   3088.9811     -2599.6336     -33512.885     -2917.1891      3.3840871     -54218.271    
    392800   3268.916       1166.7332     -1509.4248     -16967.664      3.4238997     -54134.36     
    392900   3296.1636     -16755.286      23142.295      3676.6947      3.4225765     -54079.968    
    393000   3404.0404      18624.456     -1300.9366     -5326.1104      3.3745325     -54175.028    
    393100   3134.6413      2347.2748     -27049.519     -21248.381      3.2955755     -54139.372    
    393200   3000.1292     -10825.738     -15935.704     -17509.739      3.3156117     -54169.985    
    393300   3102.9062     -5722.3969     -21512.922     -26624.11       3.4001271     -54280.992    
    393400   2746.2038     -586.26884      9770.5213     -15407.677      3.3643044     -54124.823    
    393500   2854.1357      14417.336     -18086.052     -12821.754      3.3285693     -54163.29     
    393600   2858.8385      3055.5217      1899.9302      15962.082      3.345514      -54129.14     
    393700   3183.6629     -9353.9277      3957.5035     -6918.9989      3.2933168     -54196        
    393800   3214.9544     -11321.471     -38714.426      8298.3629      3.3078324     -54097.829    
    393900   3163.9676     -445.49797     -41971.38      -22375.924      3.351576      -54042.421    
    394000   3189.6955     -33121.483     -48274.417     -15417.906      3.3202795     -54090.02     
    394100   3169.727       6522.0528     -19098.949     -21721.56       3.3885579     -54134.727    
    394200   2905.9171      11098.537     -19505.411      16350.461      3.2761754     -54021.657    
    394300   2823.8221      14672.256     -13819.566      10674.839      3.3195232     -53980.655    
    394400   3089.7659     -39526.544      3315.7647      19211.034      3.2817428     -54115.999    
    394500   3202.9422     -9250.4182     -9800.9154     -17645.164      3.3228927     -54182.403    
    394600   2948.71       -10626.701     -28933.444     -35948.104      3.3123475     -54124.68     
    394700   2647.4868     -5054.1635     -1914.1697     -17041.395      3.4584987     -54084.891    
    394800   2906.2528     -4796.406      -14456.381     -4579.5222      3.4894077     -54300.374    
    394900   2754.2038      21188.747      16899.669     -15045.162      3.497803      -54210.972    
    395000   2922.7684      25307.69      -1679.3307     -19595.305      3.3588033     -54255.947    
    395100   3040.6495     -16723.042     -12535.134      5853.0267      3.3549546     -54271.028    
    395200   2922.666       17013         -4613.1744     -30981.925      3.3372356     -54177.006    
    395300   3242.7522     -4007.4789     -21946.561     -12766.221      3.3450243     -54317.977    
    395400   2984.6631     -14667.29       12758.665      372.13909      3.3233916     -54150.573    
    395500   3260.485      -18191.148     -22250.118     -39937.351      3.2792269     -54265.486    
    395600   2819.4706      4378.1083      5842.7678      6866.8309      3.3384225     -53991.823    
    395700   3202.9777     -13135.11       22532.078      1770.9346      3.3989181     -54075.926    
    395800   2997.3507     -52854.406      52985.047     -27373.796      3.3677073     -53815.859    
    395900   3019.6937     -32482.484     -21666.311     -4510.1517      3.2510275     -53757.623    
    396000   3446.9267     -7450.2879     -17637.159     -31300.163      3.3014053     -54024.66     
    396100   3225.8072     -15598.951     -1296.208      -9434.7873      3.3217453     -54021.253    
    396200   2858.5332      5066.6021     -30679.234      7889.0164      3.3916118     -53947.88     
    396300   2971.9917     -16114.131      2887.5791      1531.2935      3.3793566     -54081.691    
    396400   2956.1509      2366.9085      17134.232     -23112.103      3.3596322     -54136.212    
    396500   2855.8065     -45838.445     -28026.562      1942.3707      3.3603689     -54129.761    
    396600   2997.9937     -30570.863     -1311.0344      16325.625      3.3459087     -54256.767    
    396700   2841.4225     -1891.8285     -21276.885     -2145.9007      3.3867299     -54218.777    
    396800   2949.5711     -3635.8007      123.17724      33687.742      3.526329      -54297.456    
    396900   2949.6123     -15190.106     -13670.21       14193.151      3.5135277     -54349.895    
    397000   2840.8677      21098.216      17041.817      11855.772      3.5563792     -54348.752    
    397100   2710.7247     -20028.396     -3426.2347      7582.8766      3.4183496     -54338.098    
    397200   2979.517       6896.4705      35838.412      8240.7187      3.5471865     -54511.292    
    397300   2778.4828     -5600.5817      12113.945      9397.3775      3.5253083     -54414.259    
    397400   2950.4079      11536.282      18444.726      149.11489      3.5389651     -54451.076    
    397500   3082.6647      1549.9434      44064.417     -9172.565       3.5660131     -54379.372    
    397600   2951.3977      12627.768     -7341.4209     -21089.498      3.3917787     -54202.904    
    397700   3058.4049      24940.714      56412.57       28634.273      3.559717      -54191.752    
    397800   3127.3428      4832.4037     -8609.9174     -5746.044       3.4131455     -54156.335    
    397900   3264.4233     -18486.148      19649.235      710.46546      3.5094838     -54217.9      
    398000   3069.7405     -22991.654     -3444.4502     -13680.181      3.4465212     -54141.868    
    398100   3091.6647     -16874.269     -18611.704     -36800.221      3.400264      -54200.086    
    398200   2885.9423      32958.64       11466.804     -422.5407       3.4583983     -54160.731    
    398300   3116.7314      35777.122      37288.701      17898.017      3.552153      -54378.521    
    398400   2677.7335     -21080.712      42800.301      24299.261      3.5365743     -54217.615    
    398500   2758.7709      2705.7405      883.17074      14810.288      3.5024642     -54286.125    
    398600   2910.0925     -20192.448     -43966.91      -6215.8334      3.3514978     -54363.154    
    398700   2859.4069      6671.2059     -3066.3016      37775.053      3.3777024     -54242.926    
    398800   2994.3079     -2580.8237      1381.8965      6236.9135      3.3346798     -54155.047    
    398900   2919.4493      2461.5677     -35767.193     -27407.268      3.3046419     -53999.637    
    399000   2988.7969     -52643.061     -13913.685      6405.9248      3.3063303     -53975.944    
    399100   3105.6406      694.16168      12055.672      26187.321      3.3511637     -54018.531    
    399200   3218.5544     -31906.387     -7977.4055      4431.3918      3.2712707     -54042.865    
    399300   3135.7168     -4181.1816     -18642.511     -11564.415      3.3653294     -54041.873    
    399400   3227.1489     -33034.115     -3764.4581     -15660.072      3.3135629     -54183.721    
    399500   2911.0923     -29507.435      28622.18       1602.2643      3.3273518     -54107.262    
    399600   3019.8528      16106.008      15250.48       25279.488      3.4317201     -54230.257    
    399700   2741.0478      14255.902     -13603.274     -13946.176      3.4065887     -54119.198    
    399800   2961.9053      7009.0969      9688.1787     -828.15953      3.3840413     -54224.829    
    399900   3052.0093      45506.865      40284.51       38499.529      3.5563359     -54225.389    
    400000   3317.1132     -1242.3623      26073.633      8749.2493      3.5578333     -54258.139    
Loop time of 450.99 on 1 procs for 400000 steps with 189 atoms

Performance: 38.316 ns/day, 0.626 hours/ns, 886.937 timesteps/s, 167.631 katom-step/s
99.9% CPU use with 1 MPI tasks x no OpenMP threads

MPI task timing breakdown:
Section |  min time  |  avg time  |  max time  |%varavg| %total
---------------------------------------------------------------
Pair    | 328.22     | 328.22     | 328.22     |   0.0 | 72.78
Kspace  | 66.518     | 66.518     | 66.518     |   0.0 | 14.75
Neigh   | 48.039     | 48.039     | 48.039     |   0.0 | 10.65
Comm    | 4.7598     | 4.7598     | 4.7598     |   0.0 |  1.06
Output  | 0.072182   | 0.072182   | 0.072182   |   0.0 |  0.02
Modify  | 2.6934     | 2.6934     | 2.6934     |   0.0 |  0.60
Other   |            | 0.6875     |            |       |  0.15

Nlocal:            189 ave         189 max         189 min
Histogram: 1 0 0 0 0 0 0 0 0 0
Nghost:           2929 ave        2929 max        2929 min
Histogram: 1 0 0 0 0 0 0 0 0 0
Neighs:          34734 ave       34734 max       34734 min
Histogram: 1 0 0 0 0 0 0 0 0 0

Total # of neighbors = 34734
Ave neighs/atom = 183.77778
Neighbor list builds = 60230
Dangerous builds = 0

#      minimize          1.0e-6 1.0e-3 1000 1000000

write_data        ${runString}.data nocoeff
write_data        hot_npt.data nocoeff
System init for write_data ...
Ewald initialization ...
  using 12-bit tables for long-range coulomb
  G vector (1/distance) = 0.28935212
  estimated absolute RMS force accuracy = 0.033353158
  estimated relative force accuracy = 0.00010044204
  KSpace vectors: actual max1d max3d = 128 4 364
                  kxmax kymax kzmax  = 4 4 4
Generated 0 of 1 mixed pair_coeff terms from geometric mixing rule
Total wall time: 0:07:30
