ITEM: TIMESTEP
0
ITEM: NUMBER OF ATOMS
189
ITEM: BOX BOUNDS pp pp pp
0.0000000000000000e+00 1.6000000000000000e+01
0.0000000000000000e+00 1.6000000000000000e+01
0.0000000000000000e+00 1.6000000000000000e+01
ITEM: ATOMS id type x y z ix iy iz
62 2 1.995 3.401 3.005 0 0 0
162 1 3.728 4.675 3.436 0 0 0
16 2 8.179 2.023 3.921 0 0 0
43 2 5.625 3.853 4.237 0 0 0
99 1 7.629 4.106 3.198 0 0 0
132 1 5.479 2 2.996 0 0 0
156 1 10.465 2.056 3.66 0 0 0
9 2 13.315 4.318 4.253 0 0 0
108 1 11.198 5.002 4.048 0 0 0
154 1 13.295 1.994 3.635 0 0 0
174 1 11.987 3.73 1.998 0 0 0
41 2 2.692 9.37 4.968 0 0 0
50 2 4.617 9.008 1.998 0 0 0
54 2 4.313 6.686 2.172 0 0 0
110 1 2.822 8.02 3.219 0 0 0
119 1 1.995 9.651 1.996 0 0 0
135 1 5.307 5.991 5.136 0 0 0
6 2 10.475 6.911 4.916 0 0 0
26 2 9.149 5.775 2.997 0 0 0
125 1 6.562 7.565 2.317 0 0 0
129 1 7.685 7.625 5.001 0 0 0
147 1 10.437 9.204 4.167 0 0 0
177 1 7.093 9.733 1.999 0 0 0
42 2 14.186 7.256 3.103 0 0 0
52 2 15.768 9.275 2.934 0 0 0
158 1 12.821 9.361 4.559 0 0 0
1 2 2.509 15.768 3.071 0 0 0
60 2 4.103 14.421 4.985 0 0 0
77 1 2.621 11.915 4.44 0 0 0
123 1 4.469 13.446 3.03 0 0 0
136 1 4.803 11.611 4.511 0 0 0
30 2 9.265 15.655 4.215 0 0 0
80 1 7.366 11.608 3.839 0 0 0
91 1 7.07 15.413 4.069 0 0 0
140 1 8.526 12.93 2.383 0 0 0
148 1 9.18 12.52 4.689 0 0 0
163 1 5.769 15.768 1.998 0 0 0
57 2 14.539 12.389 4.323 0 0 0
68 1 12.903 15.108 3.058 0 0 0
95 1 12.372 11.721 4.157 0 0 0
118 1 11.804 15.752 4.908 0 0 0
152 1 10.783 14.197 2.95 0 0 0
7 2 3.723 3.158 7.906 0 0 0
65 1 2.049 5.272 7.794 0 0 0
69 1 2.739 4.275 10.332 0 0 0
70 1 5.245 3.376 9.609 0 0 0
176 1 2.97 3.416 5.808 0 0 0
2 2 7.28 3.321 5.764 0 0 0
25 2 9.55 4.958 5.611 0 0 0
28 2 7.227 5.278 6.893 0 0 0
45 2 8.982 4.315 9.538 0 0 0
74 1 9.521 2.516 5.754 0 0 0
79 1 5.797 1.984 7.998 0 0 0
82 1 7.951 2.449 7.69 0 0 0
161 1 7.409 2.033 9.865 0 0 0
168 1 10.262 3.29 8.038 0 0 0
4 2 13.342 3.427 6.584 0 0 0
20 2 13.812 1.998 9.928 0 0 0
48 2 11.684 1.991 6.425 0 0 0
87 1 15.783 4.381 6.42 0 0 0
97 1 13.035 4.243 9.459 0 0 0
104 1 15.724 2.07 6.068 0 0 0
114 1 15.488 4.958 9.576 0 0 0
3 2 4.958 9.253 7.146 0 0 0
12 2 3.443 7.284 5.493 0 0 0
17 2 3.013 10.559 9.925 0 0 0
22 2 5.102 9.925 9.248 0 0 0
55 2 2.186 6.552 9.752 0 0 0
112 1 4.181 5.885 7.208 0 0 0
127 1 1.993 8.658 10.355 0 0 0
149 1 5.009 7.693 9.74 0 0 0
5 2 8.855 8.568 7.537 0 0 0
13 2 6.708 9.484 5.813 0 0 0
21 2 6.868 8.867 8.457 0 0 0
85 1 8.243 7.306 10.082 0 0 0
111 1 6.474 6.175 9.082 0 0 0
122 1 6.113 7.325 6.748 0 0 0
130 1 10.163 8.475 10.425 0 0 0
187 1 8.44 9.747 9.783 0 0 0
8 2 11.421 5.524 8.632 0 0 0
15 2 12.66 10.579 7.315 0 0 0
33 2 15.466 8.286 10.417 0 0 0
36 2 11.02 8.281 7.102 0 0 0
75 1 15.766 6.206 7.764 0 0 0
88 1 12.606 10.046 9.821 0 0 0
90 1 15.781 10.095 6.14 0 0 0
107 1 12.306 7.639 9.716 0 0 0
117 1 13.705 6.783 8.254 0 0 0
145 1 15.647 7.881 5.956 0 0 0
159 1 14.708 5.982 5.363 0 0 0
76 1 2.311 10.667 6.943 0 0 0
94 1 2.612 15.522 8.956 0 0 0
131 1 1.998 12.972 8.456 0 0 0
144 1 4.317 15.258 7.123 0 0 0
189 1 4.069 13.147 7.735 0 0 0
19 2 8.212 15.376 9.295 0 0 0
35 2 5.596 14.897 9.338 0 0 0
47 2 7.536 12.987 9.689 0 0 0
59 2 6.836 15.77 6.227 0 0 0
66 1 8.574 14.181 7.261 0 0 0
67 1 10.236 10.946 10.277 0 0 0
78 1 8.038 11.188 6.716 0 0 0
84 1 9.922 15.78 6.58 0 0 0
96 1 6.326 11.592 8.493 0 0 0
120 1 9.724 13.348 9.154 0 0 0
133 1 10.227 12.56 6.637 0 0 0
139 1 7.348 13.675 5.416 0 0 0
151 1 10.344 15.779 9.661 0 0 0
169 1 5.931 12.317 6.454 0 0 0
49 2 12.141 15.061 7.037 0 0 0
72 1 11.787 14.121 9.685 0 0 0
89 1 15.029 11.386 7.753 0 0 0
143 1 14.004 12.529 9.369 0 0 0
164 1 14.875 13.745 7.678 0 0 0
167 1 13.174 15.769 10.205 0 0 0
180 1 14.515 15.768 8.461 0 0 0
93 1 2.543 3.555 12.849 0 0 0
181 1 4.89 4.669 11.759 0 0 0
51 2 7.075 4.63 11.086 0 0 0
124 1 10.1 2.451 10.773 0 0 0
134 1 8.877 3.334 15.025 0 0 0
175 1 10.575 1.98 13.017 0 0 0
178 1 7.51 4.919 14.26 0 0 0
186 1 9.739 4.141 13.068 0 0 0
27 2 11.904 3.51 13.865 0 0 0
58 2 14.604 4.963 12.545 0 0 0
141 1 11.617 4.277 11.141 0 0 0
150 1 13.049 2 12.001 0 0 0
155 1 10.902 3.866 15.789 0 0 0
157 1 15.771 3.992 14.578 0 0 0
39 2 2.514 6.302 12.033 0 0 0
61 2 4.288 6.619 15.039 0 0 0
101 1 4.981 9.023 12.334 0 0 0
188 1 3.102 9.658 13.453 0 0 0
14 2 10.19 6.283 13.39 0 0 0
18 2 6.369 9.907 14.736 0 0 0
106 1 9.087 9.08 13.999 0 0 0
109 1 10.073 5.831 10.827 0 0 0
115 1 6.266 7.51 13.514 0 0 0
116 1 8.396 7.035 14.485 0 0 0
121 1 10.137 7.791 15.772 0 0 0
165 1 7.241 9.634 11.802 0 0 0
183 1 6.255 6.719 11.381 0 0 0
11 2 13.519 10.507 14.097 0 0 0
34 2 12.976 7.07 15.782 0 0 0
53 2 15.575 9.163 14.763 0 0 0
64 1 15.46 7.337 13.532 0 0 0
83 1 10.729 8.834 12.539 0 0 0
100 1 11.309 9.572 14.898 0 0 0
102 1 12.254 5.871 14.085 0 0 0
128 1 14.465 5.736 14.865 0 0 0
160 1 12.128 6.662 12.002 0 0 0
184 1 13.134 8.582 12.953 0 0 0
24 2 2.907 14.506 15.163 0 0 0
37 2 5.082 15.068 11.523 0 0 0
105 1 3.59 12.089 15.811 0 0 0
137 1 4.538 11.249 14.014 0 0 0
138 1 3.928 11.523 11.677 0 0 0
142 1 1.935 13.821 12.886 0 0 0
171 1 3.54 15.305 13.119 0 0 0
172 1 3.085 14.325 10.758 0 0 0
10 2 5.743 13.228 15.641 0 0 0
29 2 8.852 15.153 15.779 0 0 0
31 2 6.139 12.271 12.867 0 0 0
38 2 9.928 14.076 11.461 0 0 0
56 2 5.501 15.798 14.061 0 0 0
63 2 8.423 15.772 13.064 0 0 0
73 1 10.294 11.565 14.397 0 0 0
81 1 7.068 14.129 11.505 0 0 0
86 1 9.851 11.903 12.216 0 0 0
103 1 10.647 15.775 12.655 0 0 0
113 1 8.117 10.904 15.771 0 0 0
126 1 8.258 11.318 13.615 0 0 0
173 1 8.857 13.045 15.154 0 0 0
182 1 8.501 13.447 13.011 0 0 0
185 1 6.752 15.793 15.861 0 0 0
23 2 11.707 10.904 12.815 0 0 0
32 2 15.77 12.028 14.043 0 0 0
40 2 14.055 13.763 12.049 0 0 0
44 2 15.774 15.77 12.558 0 0 0
46 2 12.973 15.758 15.039 0 0 0
71 1 11.998 12.174 11.045 0 0 0
92 1 11.033 15.009 15.779 0 0 0
98 1 15.772 13.852 10.68 0 0 0
146 1 13.262 15.779 12.433 0 0 0
153 1 14.254 11.844 15.717 0 0 0
166 1 10.784 13.939 13.855 0 0 0
170 1 13.756 13.864 14.246 0 0 0
179 1 11.991 11.544 15.794 0 0 0
ITEM: TIMESTEP
10000
ITEM: NUMBER OF ATOMS
189
ITEM: BOX BOUNDS pp pp pp
0.0000000000000000e+00 1.6000000000000000e+01
0.0000000000000000e+00 1.6000000000000000e+01
0.0000000000000000e+00 1.6000000000000000e+01
ITEM: ATOMS id type x y z ix iy iz
75 1 1.12921 4.72616 3.88047 1 0 0
94 1 4.12199 3.52792 0.985825 0 1 0
163 1 6.40265 2.35677 3.26483 0 1 0
43 2 6.66469 2.68135 5.02875 0 0 0
4 2 5.66132 3.66006 2.1755 1 0 0
46 2 9.21639 5.24479 1.61032 0 1 1
132 1 9.61519 3.64636 2.4764 0 0 0
92 1 6.76643 4.10909 0.72864 0 1 1
157 1 6.25915 4.3753 4.26097 0 0 1
16 2 10.3875 3.47557 4.2261 0 0 0
125 1 14.1644 0.517556 4.44733 -1 0 0
42 2 13.4095 2.36357 3.61014 0 0 0
87 1 12.3737 3.73978 2.78566 0 0 0
97 1 11.7641 2.00277 4.56902 0 0 0
1 2 13.7048 0.531433 0.357189 -1 1 0
170 1 13.3698 1.82359 1.86606 0 1 1
176 1 14.7771 4.45196 0.667557 -1 0 0
154 1 13.9942 3.43626 5.32834 0 0 0
58 2 12.8605 3.90653 0.266903 0 0 1
174 1 2.83913 6.56633 2.40952 0 0 0
53 2 2.92251 6.39035 0.508984 1 0 1
179 1 1.04093 6.45683 0.319881 1 0 1
80 1 0.73052 7.49489 4.48651 0 0 0
117 1 4.35535 6.01184 4.76276 1 0 0
54 2 2.523 6.29302 4.16805 0 0 0
93 1 5.8526 6.03143 2.33255 0 0 1
164 1 5.91619 8.81106 0.846471 1 0 0
61 2 6.28429 6.19751 4.07532 0 0 1
28 2 7.36724 8.29878 1.76288 0 0 0
78 1 7.11801 7.98389 4.00601 0 0 0
108 1 8.74701 6.77863 2.07865 0 0 0
135 1 8.09598 5.78435 4.62065 0 0 0
26 2 9.83312 7.19028 3.60431 0 0 0
183 1 8.65526 9.61392 2.17773 0 0 1
102 1 11.9335 5.48529 0.776334 0 0 1
116 1 10.7838 5.47595 3.52778 0 0 1
34 2 12.4698 6.00276 2.45463 0 0 1
121 1 13.9048 6.47747 3.69645 0 0 1
6 2 14.909 7.59207 4.95266 0 0 0
186 1 11.6582 7.5006 2.39401 0 0 1
115 1 14.5927 9.382 5.28784 0 0 1
68 1 1.11262 12.6445 0.323232 1 0 0
171 1 2.23857 15.4782 0.429672 0 0 1
177 1 4.22698 10.7869 0.279506 0 0 0
10 2 9.38585 11.5334 1.35572 0 0 1
140 1 9.72414 13.0523 2.37679 0 0 0
139 1 7.25911 11.4804 0.904045 0 0 0
173 1 11.2308 11.7952 0.69205 0 0 1
30 2 10.7704 13.8378 3.95221 0 0 0
90 1 13.4856 14.1782 0.530631 0 0 0
49 2 12.7444 12.5672 1.10612 0 0 0
72 1 12.2079 13.4709 2.93518 0 0 0
89 1 13.9058 11.3051 0.496036 0 0 0
152 1 10.9158 15.4216 4.51603 0 0 0
71 1 15.2891 15.7267 0.81315 0 0 1
99 1 5.21388 3.16355 6.2042 0 0 0
104 1 0.465917 2.16017 5.97916 1 0 0
182 1 1.14 1.57358 10.2698 0 1 0
2 2 0.810596 2.12623 8.63467 0 0 0
7 2 1.22527 3.77307 5.61927 0 0 0
21 2 1.95238 5.08895 9.34293 0 0 0
65 1 1.91286 3.46761 8.03471 0 0 0
88 1 0.63104 3.68943 10.0223 1 0 0
12 2 4.33395 4.62107 7.13397 0 0 0
188 1 2.68157 4.80063 5.90196 0 0 1
187 1 3.381 2.65688 10.4048 0 0 0
3 2 8.4003 5.01995 6.59113 0 0 0
76 1 8.59236 2.97454 5.42726 0 0 0
110 1 6.3976 5.08551 6.88209 0 0 0
184 1 9.93052 4.23112 8.88652 0 1 0
129 1 10.4267 4.48936 6.33811 0 0 0
20 2 10.4891 3.32818 10.5722 0 0 0
151 1 13.4863 0.262764 6.83857 0 1 0
112 1 15.9702 4.70292 6.60934 -1 0 0
69 1 14.9603 1.88925 8.04313 -1 0 0
142 1 11.6138 1.57489 7.37539 -1 1 0
40 2 15.1392 0.94342 5.98515 0 1 0
9 2 11.618 0.574187 5.9559 0 0 0
25 2 13.9924 4.65767 6.79618 0 0 0
83 1 12.4201 0.50649 9.72843 0 1 0
180 1 13.1446 3.37003 9.07311 0 1 0
44 2 13.2906 1.42029 8.49984 0 1 0
55 2 13.9883 4.66463 10.1944 -1 0 0
109 1 11.9686 4.5474 10.4389 0 0 0
85 1 3.6637 5.63394 8.24367 0 0 0
122 1 1.74842 6.80783 10.0364 0 0 0
134 1 9.90147 7.70462 5.4627 0 0 1
147 1 9.1605 6.62707 7.35599 0 0 0
82 1 8.72548 8.88466 8.95582 0 0 0
13 2 9.58227 8.44219 7.38748 0 0 0
144 1 10.2192 10.1664 7.18811 0 0 0
156 1 12.5725 5.60208 7.4073 0 0 0
48 2 10.7315 5.75473 7.63718 0 0 0
74 1 14.4178 6.95284 6.4068 -1 0 0
169 1 11.312 7.61308 7.7683 0 0 0
158 1 14.7252 5.55364 8.7278 0 0 0
36 2 13.2587 7.40849 8.19738 0 0 0
107 1 13.9361 9.02598 8.65171 0 0 0
127 1 12.5118 6.97331 9.84438 -1 0 0
149 1 1.2059 14.5474 8.98357 0 0 0
17 2 2.62563 14.0513 10.0102 0 0 0
172 1 4.04722 15.1588 10.3803 0 0 0
81 1 2.77679 11.7762 10.2837 0 0 0
118 1 9.84658 13.1661 5.47041 0 0 0
67 1 10.3487 13.1954 8.59108 0 0 0
5 2 14.3831 10.7548 6.79018 0 0 0
91 1 12.585 11.8032 6.5759 0 0 0
60 2 10.6883 11.9646 6.69594 0 0 0
161 1 14.4045 15.4374 9.13506 -1 -1 0
15 2 15.4539 14.2138 8.04754 0 0 0
133 1 15.8787 15.2769 6.69111 0 0 0
130 1 14.8433 12.7153 7.24395 0 0 0
23 2 10.8498 13.8259 10.1884 0 0 0
143 1 12.6363 13.728 10.3211 0 0 0
119 1 2.28581 4.74503 15.9033 0 0 -1
11 2 0.33732 4.73673 15.8434 1 0 0
37 2 4.24062 1.04851 11.0952 0 1 0
124 1 5.0915 2.87711 12.451 0 0 0
79 1 0.502217 3.13389 15.0068 0 0 -1
56 2 3.63105 3.21792 15.3399 0 1 0
39 2 1.46936 2.61922 11.5435 0 0 0
150 1 2.30423 3.92363 12.5646 1 0 0
98 1 0.114184 1.59247 12.6513 1 1 0
62 2 0.556887 1.46538 14.5538 0 0 -1
111 1 2.30179 0.455573 12.2775 0 0 0
14 2 3.99225 4.47013 12.5854 0 0 0
181 1 4.59423 4.55708 14.3215 0 0 0
66 1 5.03777 0.55908 12.6763 0 1 0
175 1 5.01103 2.08283 15.1232 0 0 0
185 1 2.5697 1.57547 14.5948 0 1 0
148 1 10.2655 4.91222 11.9445 0 1 0
19 2 6.46293 4.6741 15.0048 0 1 0
29 2 6.19481 1.7707 13.7512 0 1 0
73 1 7.03551 3.1623 13.9393 0 1 0
103 1 10.5053 3.06335 14.4779 0 1 0
155 1 10.5634 2.18805 11.8828 0 0 0
145 1 9.85451 0.097053 13.9305 1 0 -1
84 1 7.73966 1.16391 12.5117 0 1 0
27 2 10.7869 5.19411 14.0956 0 0 0
63 2 11.2651 1.34506 13.6018 0 1 0
128 1 14.9435 1.246 15.26 0 0 0
146 1 12.8643 2.22201 15.4919 0 1 0
165 1 12.9726 4.93266 14.6243 -1 0 0
141 1 14.4024 4.9232 11.8842 0 0 0
166 1 12.3669 0.78602 12.2601 0 1 0
178 1 4.70591 7.06173 15.7975 0 0 0
70 1 3.53903 5.75038 11.281 0 0 0
22 2 3.38355 7.62435 11.1286 0 0 0
136 1 2.50589 8.05075 15.2904 0 0 -1
77 1 5.2625 7.49928 12.1811 0 0 -1
50 2 0.563249 7.81469 15.0804 0 0 -1
131 1 0.184148 9.66201 15.4824 0 0 -1
35 2 4.47877 9.09662 15.7289 0 0 -1
101 1 2.34885 9.50849 11.6011 0 0 0
126 1 7.91832 8.97594 15.0285 0 0 0
45 2 9.4594 9.31263 10.7402 0 0 0
168 1 10.5298 7.72917 10.872 0 0 0
137 1 9.71902 5.40668 15.5817 0 1 0
123 1 7.84867 8.2939 11.7874 0 0 0
47 2 6.98804 8.21155 13.455 0 0 0
96 1 7.33423 6.15898 14.2964 0 0 0
105 1 6.02377 9.70343 14.2151 0 0 0
160 1 15.672 6.03672 14.3588 0 0 0
114 1 11.9818 6.47526 13.096 0 0 0
64 1 15.067 8.13209 13.8005 0 0 0
33 2 13.9944 6.52305 13.7456 0 0 0
8 2 11.3322 6.10871 11.1434 0 0 0
41 2 0.211893 14.3665 15.9629 0 0 -1
100 1 3.59237 11.2967 13.7156 1 0 0
32 2 2.55178 11.4441 12.0782 1 0 0
51 2 2.9474 15.723 14.5623 0 -1 0
113 1 3.44437 13.837 14.3734 0 0 0
24 2 3.31043 12.2731 15.4808 0 0 0
153 1 1.08207 12.3171 13.5483 1 0 0
95 1 0.98269 15.7196 14.4928 1 0 -1
162 1 1.66647 13.6696 11.6381 0 -1 -1
52 2 0.320606 14.4215 12.7663 1 0 -1
138 1 9.42642 10.7381 11.9747 0 0 0
189 1 9.50296 14.8616 10.8399 0 0 0
59 2 8.87878 15.6715 12.4922 0 0 0
86 1 8.30201 13.8687 12.886 0 0 0
18 2 7.41228 10.759 15.268 0 0 0
120 1 8.76256 11.8832 15.0799 0 0 0
31 2 9.33065 12.3683 13.1139 0 0 0
57 2 15.49 11.3921 15.3547 0 0 -1
106 1 11.0679 13.343 12.2418 0 0 0
167 1 14.9356 14.6689 11.7885 0 0 0
159 1 15.3439 13.305 14.7176 0 0 -1
38 2 13.5807 15.3876 10.7973 0 0 0
ITEM: TIMESTEP
20000
ITEM: NUMBER OF ATOMS
189
ITEM: BOX BOUNDS pp pp pp
0.0000000000000000e+00 1.6000000000000000e+01
0.0000000000000000e+00 1.6000000000000000e+01
0.0000000000000000e+00 1.6000000000000000e+01
ITEM: ATOMS id type x y z ix iy iz
42 2 1.76398 3.92439 3.10598 1 0 0
170 1 0.964986 5.22556 1.81085 1 1 1
104 1 2.11661 3.15502 4.80656 1 0 0
163 1 0.867498 2.58266 1.94453 0 1 0
151 1 1.78657 5.39654 4.53706 1 1 0
56 2 2.36521 2.90859 0.104814 0 1 1
174 1 4.75479 7.11453 4.26306 0 0 0
46 2 8.63263 5.9291 1.89935 0 1 1
165 1 9.28255 4.07227 1.48591 -1 0 1
135 1 9.30138 6.57913 3.56318 0 0 0
3 2 10.5822 5.37409 4.39904 0 0 0
25 2 15.3175 3.04425 5.68327 0 0 0
125 1 11.9087 3.76779 0.8939 -1 0 0
58 2 13.3639 4.3724 2.25728 0 0 1
71 1 13.5499 0.632624 1.20495 0 1 1
154 1 14.8064 3.83408 4.18508 0 0 0
185 1 14.1454 5.06173 0.603336 -1 1 1
128 1 10.9703 0.955498 1.12899 0 0 1
102 1 11.9244 4.43397 3.45104 0 0 1
27 2 10.4709 2.82519 0.645444 0 0 1
117 1 1.62152 7.68515 2.77997 1 0 0
54 2 2.87768 7.50496 4.12403 0 0 0
80 1 3.15554 8.66386 5.79604 0 0 0
78 1 3.0919 3.72381 1.41783 0 0 0
92 1 7.23669 5.41005 0.900043 0 1 1
137 1 9.24312 7.07687 0.556402 0 1 1
11 2 15.9004 6.71662 1.84639 0 0 1
160 1 14.4483 5.90416 2.82523 0 0 1
183 1 11.6855 6.26231 5.48332 0 0 1
131 1 14.9782 10.5843 2.73421 -1 0 0
57 2 14.4804 9.9982 0.935062 0 0 0
139 1 13.197 9.11161 4.36827 0 0 0
179 1 15.0976 8.3029 1.33832 0 0 1
10 2 14.2186 10.4886 4.36068 0 0 1
62 2 11.9591 15.3923 1.76467 -1 -1 0
142 1 12.0308 14.5574 3.30465 -1 0 0
152 1 12.4626 14.1393 0.484028 0 0 0
30 2 12.6522 13.5235 4.87043 0 0 0
72 1 13.3234 12.09 4.42353 0 0 0
68 1 13.1156 11.2234 0.171024 0 0 0
75 1 4.35383 3.83811 5.56861 1 0 0
43 2 4.86186 5.67198 5.48492 0 0 0
65 1 4.66996 2.8788 8.83318 0 0 0
158 1 2.64541 3.02166 7.31782 1 0 0
180 1 1.79661 15.858 7.89464 1 0 0
55 2 3.78941 2.2145 6.29881 0 0 0
7 2 1.77852 5.02142 6.35556 0 0 0
181 1 2.3583 4.6098 10.1732 0 0 0
14 2 2.51065 3.20922 9.11538 0 0 0
88 1 2.52403 1.59325 10.1179 1 0 0
87 1 0.289773 4.18234 6.4269 1 0 0
77 1 0.0573267 2.49283 8.94699 0 0 -1
37 2 0.808236 0.449137 9.41974 0 1 0
110 1 10.4698 4.12111 5.69507 0 0 0
99 1 5.431 5.47368 7.52746 0 0 0
16 2 11.1246 3.30483 7.22938 0 0 0
76 1 7.96567 4.61956 9.76147 0 0 0
12 2 6.09149 4.59994 9.14036 0 0 0
155 1 7.01892 2.19263 9.53302 0 0 0
141 1 9.9047 2.00803 9.92482 0 0 0
9 2 13.7674 0.153631 7.41796 0 0 0
97 1 11.3983 1.42939 7.69591 0 0 0
184 1 13.0404 1.24294 9.82509 0 1 0
109 1 12.6222 4.54043 7.02187 0 0 0
44 2 15.3248 2.71788 10.5799 0 1 0
148 1 14.8174 1.60106 6.46357 0 1 0
48 2 13.2838 5.2644 8.6599 0 0 0
173 1 15.1613 15.8958 8.47478 0 0 1
38 2 11.1562 0.608867 9.37991 0 1 0
147 1 10.2357 4.1683 8.45785 0 0 0
129 1 14.0385 6.76909 7.35508 0 0 0
166 1 12.507 15.3173 8.46196 0 0 0
85 1 14.6005 4.37529 9.74044 -1 0 0
115 1 1.13899 6.03111 7.76166 1 0 1
112 1 3.17441 6.32198 6.31758 0 0 0
156 1 3.75592 6.80433 11.523 1 0 0
6 2 3.10527 8.89742 7.56533 1 0 0
121 1 2.76395 7.87082 9.09378 1 0 1
107 1 4.09975 10.5156 7.59739 1 0 0
21 2 2.27564 6.44062 10.2967 0 0 0
105 1 2.00437 11.8867 10.0875 0 0 0
74 1 1.91108 10.117 8.43422 0 0 0
82 1 8.67045 7.01188 10.0397 0 0 0
26 2 13.0031 7.47505 5.61009 0 0 0
13 2 12.0424 8.4255 8.57839 0 0 0
134 1 12.6479 8.65687 6.99125 0 0 1
186 1 0.0715245 8.71152 7.41435 1 0 1
34 2 15.7712 7.12999 8.12086 0 0 1
169 1 13.3644 9.56722 9.44893 0 0 0
116 1 12.522 6.92459 9.43198 0 0 1
70 1 15.9584 7.08433 10.0797 -1 0 0
36 2 1.30692 9.80478 10.3167 1 0 0
69 1 3.84847 0.342076 6.2139 0 0 0
2 2 3.5211 15.3428 7.66388 0 -1 0
187 1 4.63203 15.9465 9.22855 0 -1 0
83 1 0.860725 14.9144 10.8477 1 0 0
161 1 3.48362 13.567 8.05106 0 -1 0
182 1 1.50573 12.0163 6.89486 0 0 0
40 2 3.03246 11.8698 8.12659 1 0 0
17 2 0.676968 13.2342 11.1901 0 0 0
67 1 10.2579 15.0467 8.85562 0 0 0
118 1 13.9178 14.9874 5.92866 0 0 0
144 1 15.7262 10.4792 5.44857 0 0 0
5 2 13.9708 10.8347 10.3976 0 0 0
133 1 15.7125 10.6138 9.14353 0 0 0
140 1 12.491 13.0403 6.76485 0 0 0
15 2 0.0138839 10.7836 7.21075 1 0 0
91 1 12.3605 11.802 9.97597 0 0 0
60 2 11.7953 13.5582 8.27911 0 0 0
143 1 15.0807 12.3517 10.7626 0 0 0
29 2 5.36784 1.49498 10.0316 0 1 0
95 1 1.91953 4.0267 14.7359 1 1 -1
188 1 3.91577 4.25634 12.6999 0 0 1
39 2 1.18848 4.53824 12.9184 0 0 0
150 1 15.5917 5.32108 13.6598 0 0 0
172 1 0.755163 2.90048 12.0708 0 1 0
24 2 15.6691 0.112003 12.5853 -1 1 0
124 1 4.90258 1.76583 11.8583 0 0 0
20 2 8.37486 2.00557 10.6869 0 0 0
167 1 8.56464 3.19859 12.068 0 1 0
79 1 3.05237 1.88031 14.5857 0 0 -1
4 2 4.12053 2.66006 13.2827 1 0 -1
94 1 5.404 5.03169 10.7643 0 1 -1
132 1 5.53372 3.12458 14.5705 0 0 -1
73 1 8.42424 5.21039 14.7657 0 1 0
63 2 9.97458 4.05991 13.3116 0 1 0
146 1 10.1016 3.18728 14.888 0 1 0
8 2 9.64208 5.08003 9.91685 0 0 0
51 2 15.6765 4.98593 15.3941 -1 0 0
111 1 15.6231 0.6752 14.554 -1 0 0
66 1 13.1142 1.16781 14.0762 -1 1 0
33 2 12.353 4.44387 11.7972 0 0 0
114 1 11.6334 2.77967 12.412 0 0 0
1 2 14.3058 1.59278 15.2894 -1 1 -1
98 1 11.3895 15.8462 11.2319 0 0 0
52 2 12.4792 1.25744 12.0308 0 1 -1
159 1 13.9147 2.82982 11.5049 0 1 -1
113 1 15.5051 3.27958 15.0522 -1 1 0
176 1 0.343655 6.72764 15.8188 0 0 -1
119 1 1.76602 9.93728 15.9725 0 0 -1
61 2 0.9518 8.27459 15.05 0 0 0
53 2 3.28572 10.6587 15.3749 1 0 0
157 1 2.6063 8.1793 14.3041 0 0 0
22 2 15.079 6.93846 11.4529 -1 0 0
101 1 5.33029 8.07375 13.2117 0 0 0
178 1 1.15767 5.82135 11.8486 0 0 0
32 2 3.49572 8.39991 12.5288 1 0 0
126 1 4.09337 9.94329 13.3845 0 0 0
164 1 2.1324 8.93961 11.5186 1 0 -1
81 1 5.36155 10.4634 15.4441 0 0 0
103 1 10.253 4.96781 11.622 0 1 0
18 2 6.1549 9.35963 14.0639 0 0 0
19 2 8.89067 7.0847 14.8607 0 1 0
28 2 6.37603 4.62537 15.3929 0 0 -1
93 1 5.90991 5.86702 14.0971 0 0 0
108 1 7.58693 8.69681 14.9901 0 0 -1
45 2 9.2502 8.23696 11.438 0 0 0
123 1 8.02303 7.16318 12.8575 0 0 0
47 2 5.72823 5.98266 12.2646 0 0 0
96 1 10.5395 7.97141 13.3951 0 0 0
138 1 8.73369 9.88715 10.6972 0 0 0
136 1 15.5318 9.65855 15.0632 -1 0 -1
168 1 12.0864 4.66932 10.1406 0 0 0
175 1 13.59 6.13397 12.0796 -1 0 0
153 1 13.717 8.21245 12.9915 0 0 0
50 2 12.3169 7.05796 13.4217 -1 0 -1
122 1 0.519666 8.0655 13.11 0 0 0
130 1 15.1319 9.4615 11.2964 0 0 0
64 1 11.6005 5.23772 13.5513 0 0 0
89 1 10.7768 8.58762 10.2952 0 0 -1
41 2 15.014 9.73921 13.1805 -1 0 -1
149 1 15.718 1.03765 11.0998 -1 1 0
127 1 0.384612 11.082 13.3851 0 0 0
177 1 2.46385 12.1681 14.7707 0 0 -1
35 2 0.588747 12.4776 14.4629 0 0 -1
100 1 0.114123 13.8185 13.3595 1 0 0
171 1 15.1703 12.8226 15.2148 -1 0 0
84 1 7.87741 0.0948889 10.8016 0 1 0
23 2 8.9842 14.3218 10.5638 0 0 0
145 1 8.2516 13.1312 11.7111 1 -1 -1
120 1 7.14353 10.3973 12.8295 0 0 0
31 2 8.3748 11.3246 11.8343 0 0 0
86 1 10.1427 11.4257 12.6303 0 0 0
49 2 13.1166 12.9777 14.8962 0 0 -1
106 1 13.2706 11.1604 12.0484 0 0 0
162 1 13.8697 15.5413 12.5358 -1 -1 -1
59 2 11.6456 12.3203 11.8979 0 0 0
189 1 10.4356 13.3936 10.3804 0 0 0
90 1 11.8086 13.1727 13.5784 0 0 -1
ITEM: TIMESTEP
30000
ITEM: NUMBER OF ATOMS
189
ITEM: BOX BOUNDS pp pp pp
0.0000000000000000e+00 1.6000000000000000e+01
0.0000000000000000e+00 1.6000000000000000e+01
0.0000000000000000e+00 1.6000000000000000e+01
ITEM: ATOMS id type x y z ix iy iz
113 1 0.297796 3.79979 15.6946 0 1 0
46 2 9.76171 3.32342 4.98543 0 1 1
135 1 8.84853 4.68054 4.66409 0 0 0
165 1 8.11305 4.96618 2.23726 -1 0 1
92 1 9.028 1.61652 5.1167 0 1 1
3 2 9.47905 6.04319 3.48562 0 0 0
125 1 10.3987 5.85407 1.85242 -1 0 0
19 2 8.22875 3.58938 1.03552 0 1 1
170 1 0.40839 4.85933 3.12813 1 1 1
51 2 14.6022 4.68756 2.62099 -1 0 1
150 1 15.3029 1.72477 1.95896 0 0 1
185 1 14.2081 4.25143 4.39448 -1 1 1
140 1 11.167 15.526 5.41138 0 0 0
96 1 9.93277 2.78014 0.914271 0 0 1
119 1 13.0235 4.11401 1.72629 -1 0 0
56 2 2.51656 7.04671 0.602592 0 1 1
157 1 1.44008 7.80804 2.2323 0 0 1
75 1 2.09528 5.63791 5.7227 1 0 0
11 2 1.53422 6.12875 4.00388 1 0 1
102 1 10.1742 7.75602 4.0906 0 0 1
160 1 11.5386 10.2562 3.94834 0 0 1
174 1 15.7865 6.9814 4.4322 -1 0 0
110 1 13.246 7.50593 3.63357 0 0 0
57 2 13.1311 7.71327 14.2168 0 0 -1
179 1 14.491 6.35858 1.70639 0 0 1
68 1 13.9259 9.34406 1.77183 0 0 0
25 2 15.1994 7.97245 2.66586 0 0 0
158 1 15.763 9.45915 3.89476 0 0 0
131 1 11.7704 11.4297 1.88586 -1 0 0
120 1 12.5991 6.28648 15.8999 0 0 0
59 2 11.6971 5.08715 0.790451 0 0 1
10 2 12.1896 11.8777 3.65588 0 0 1
144 1 12.4175 13.535 3.84758 0 0 0
30 2 15.1093 0.179894 1.57653 0 1 0
152 1 14.2512 11.5584 15.7131 0 0 -1
49 2 13.3272 10.6538 1.03899 0 0 0
80 1 14.5362 15.066 0.304957 -1 0 0
74 1 0.224124 12.7113 3.9295 0 0 0
117 1 13.9284 11.7242 2.74443 0 0 0
72 1 14.1328 15.2616 2.96247 0 0 0
5 2 12.9247 15.1742 4.81481 0 0 0
142 1 12.2515 13.9812 14.6408 -1 0 -1
104 1 1.04552 2.55164 6.68444 1 0 0
55 2 2.99018 4.82583 9.78666 0 0 0
2 2 2.47591 2.40006 7.547 0 0 0
88 1 3.09287 4.30283 7.67374 1 0 0
14 2 3.07295 5.95403 12.58 0 0 0
85 1 0.482117 1.39824 10.5379 0 0 0
181 1 2.01121 5.92507 11.3685 0 0 0
94 1 2.79632 3.30674 10.6783 0 1 -1
166 1 6.57854 2.6542 10.7332 0 1 0
129 1 7.09432 6.14166 9.89974 0 0 0
20 2 7.51878 4.43618 10.4499 0 0 0
97 1 9.01739 3.62638 9.21175 0 0 0
183 1 11.0982 4.68437 3.96823 0 0 1
42 2 13.1167 3.81821 5.83208 0 0 0
115 1 13.7782 2.87466 7.38002 0 0 1
38 2 10.2481 0.853957 6.36269 0 1 0
9 2 15.1761 1.20158 6.61851 0 0 0
69 1 11.4867 3.00005 5.83129 -1 0 0
16 2 10.6839 4.0713 9.90119 0 0 0
82 1 10.9948 1.19263 7.87219 0 0 0
173 1 15.0534 0.886281 8.36815 0 1 1
67 1 11.9572 2.36058 10.3519 0 1 0
43 2 2.46059 6.1263 7.42218 0 0 0
151 1 3.90409 6.03979 8.71475 1 1 0
112 1 2.62375 10.5941 8.18719 0 0 0
121 1 4.60138 10.7048 10.4981 1 0 1
130 1 1.44569 5.73283 8.67755 1 0 0
32 2 0.282807 6.22393 10.3532 1 0 0
21 2 5.77167 9.16567 11.251 0 0 0
175 1 0.760489 8.30512 11.0224 0 0 0
12 2 7.98759 7.68061 9.7362 0 0 0
99 1 6.81592 7.80545 12.0417 0 0 0
65 1 9.30892 8.49206 8.53099 0 0 0
132 1 9.16622 8.27237 11.0855 0 0 -1
45 2 10.9783 9.18755 9.09587 0 0 0
138 1 6.59134 8.78201 9.76892 0 0 0
58 2 11.8111 8.62427 4.33578 0 0 1
148 1 13.6113 5.54795 6.87915 0 1 0
186 1 1.80841 7.86261 7.47463 1 0 1
109 1 12.8251 8.29439 6.05911 0 0 0
86 1 11.1429 10.8161 10.1548 0 0 0
36 2 1.11722 9.631 7.71392 1 0 0
34 2 14.4026 7.07609 6.06938 0 0 1
70 1 14.9035 6.8855 9.06743 -1 0 0
154 1 11.9467 4.59093 8.27105 0 0 0
106 1 12.0417 7.35468 8.77516 0 0 0
31 2 13.8588 10.1039 6.76376 0 0 0
169 1 0.398986 11.4483 6.22459 1 0 0
13 2 13.147 6.08269 8.61746 0 0 0
176 1 12.5297 8.95868 10.6958 -1 0 -1
90 1 15.2227 8.69278 6.78713 0 0 -1
161 1 4.57827 15.1344 7.20443 0 -1 0
6 2 3.79473 11.4465 9.00576 1 0 0
187 1 3.12046 1.16058 8.80399 0 0 0
107 1 4.36893 12.3375 7.20376 1 0 0
105 1 1.51191 12.5445 8.27067 0 0 0
40 2 2.99127 13.9448 7.17954 1 0 0
182 1 1.58517 14.2324 5.88304 0 0 0
100 1 3.47537 13.3985 9.55844 1 0 0
15 2 0.266199 14.7486 4.40222 1 0 0
139 1 12.1384 10.0092 7.80032 0 0 0
60 2 12.8486 1.62029 8.73542 0 1 0
133 1 13.659 11.2383 5.30461 0 0 0
177 1 15.8039 10.1086 8.97392 -1 0 -1
118 1 0.0983836 0.291555 5.02314 1 1 0
54 2 15.2084 11.2523 4.09409 -1 0 0
17 2 15.9369 13.1544 6.83832 -1 0 0
91 1 13.6614 0.464562 6.08289 0 1 0
143 1 14.6704 14.3042 5.41176 0 0 0
180 1 15.8714 14.3172 8.47424 0 0 0
83 1 14.2994 12.4724 7.6819 0 0 0
189 1 13.4335 15.9825 9.77947 0 0 0
35 2 12.3339 10.4818 11.4744 -1 0 -1
52 2 15.2521 15.9559 10.2182 0 0 -1
95 1 3.1524 2.5683 15.7092 1 1 -1
33 2 1.25719 2.03753 15.1544 1 0 0
7 2 15.9583 3.0048 11.5184 -1 0 0
77 1 3.85131 0.822761 10.9363 0 0 -1
156 1 0.160146 4.36831 10.3427 1 0 0
4 2 2.60034 1.61033 11.9228 1 0 -1
159 1 2.22533 1.39156 13.5823 1 1 -1
178 1 1.04239 6.65173 15.7256 0 0 0
93 1 3.00667 4.67515 13.7104 0 0 0
50 2 15.7762 5.42593 14.7071 -1 0 -1
28 2 3.72483 4.19052 15.2387 0 0 -1
39 2 14.7008 0.80624 14.0022 -1 0 0
98 1 15.9445 2.11365 13.2751 0 1 0
163 1 0.0823478 0.881897 15.8064 0 1 -1
188 1 5.03293 2.25344 12.4203 0 0 1
29 2 5.85529 1.1838 11.1868 0 1 0
47 2 6.45244 3.27723 13.2839 0 0 0
73 1 6.92271 1.3873 13.3232 0 1 0
108 1 5.35669 4.09121 14.5032 0 0 -1
76 1 8.49004 3.39721 13.7598 0 0 0
155 1 6.7963 4.72613 12.1585 0 0 0
168 1 14.5766 3.93998 12.0436 0 0 0
44 2 12.0194 2.42683 12.1827 0 1 0
184 1 14.2568 1.61267 11.4795 0 1 0
89 1 14.0381 6.13389 13.9828 0 0 -1
84 1 9.75175 3.0824 11.6228 0 1 0
141 1 12.2654 4.11702 12.3332 0 0 0
137 1 9.39529 15.6904 14.3629 0 0 0
63 2 8.68514 1.47493 14.1499 0 1 0
114 1 10.3388 2.26152 13.5725 0 0 0
27 2 11.1542 15.1939 13.9095 0 -1 0
66 1 12.9246 0.592917 13.8769 -1 1 0
79 1 3.67215 5.65361 0.232408 0 0 0
87 1 15.8763 5.58453 12.7707 0 0 0
78 1 6.48962 7.67767 14.6475 0 0 -1
61 2 1.15758 8.72575 13.3191 0 0 0
126 1 3.86316 8.12219 15.9755 0 0 0
164 1 1.98969 7.05553 13.5364 1 0 -1
53 2 4.87318 7.99759 14.5448 1 0 0
41 2 15.5449 10.6364 10.7149 -1 0 -1
123 1 4.74195 6.52163 13.1597 0 0 0
81 1 4.34953 9.30652 12.8289 0 0 0
122 1 14.5346 8.49834 13.1551 -1 0 0
101 1 8.62578 5.8639 13.2538 0 0 0
18 2 6.8481 6.48685 13.2091 0 0 0
8 2 9.96115 4.23575 13.1648 0 0 0
167 1 6.91809 2.64363 15.6757 0 1 0
136 1 0.431476 9.45742 14.7494 0 0 -1
26 2 10.6008 7.58137 11.9285 0 0 0
64 1 12.1564 6.84913 12.7094 0 0 0
48 2 13.6022 5.54446 12.3741 0 0 0
147 1 9.67999 5.26859 11.0175 0 0 0
116 1 13.3584 5.79509 10.5342 0 0 1
134 1 10.9153 4.70508 14.7907 0 0 1
103 1 11.3553 9.47739 12.689 0 1 0
22 2 14.8827 10.1546 13.9781 -1 0 0
153 1 13.4542 9.57951 15.1636 0 0 0
127 1 0.584448 10.3747 12.6986 0 0 0
37 2 4.14801 15.5712 9.03101 0 0 0
172 1 2.21664 14.8861 8.49006 0 0 0
111 1 0.217214 12.3055 10.8657 0 -1 0
24 2 1.35148 13.6697 9.67141 0 0 0
149 1 0.773201 14.9836 11.1785 0 0 0
71 1 15.7251 15.4187 13.4251 0 0 0
124 1 6.09413 15.7544 10.2347 0 -1 0
62 2 13.8644 13.3159 15.3876 -1 -1 -1
171 1 14.2195 10.7182 12.1552 -1 0 0
128 1 14.9736 13.0597 13.9526 0 -1 0
145 1 12.993 12.368 10.9619 1 -1 -1
146 1 11.7197 15.0477 11.9267 0 0 0
162 1 14.5509 14.6239 11.2179 -1 -1 -1
23 2 12.8996 14.2105 10.599 0 0 0
1 2 15.9653 13.8842 12.5262 -1 0 -1
ITEM: TIMESTEP
40000
ITEM: NUMBER OF ATOMS
189
ITEM: BOX BOUNDS pp pp pp
0.0000000000000000e+00 1.6000000000000000e+01
0.0000000000000000e+00 1.6000000000000000e+01
0.0000000000000000e+00 1.6000000000000000e+01
ITEM: ATOMS id type x y z ix iy iz
79 1 1.61207 4.56755 15.2307 0 0 -1
165 1 14.1307 6.66035 15.3697 -1 0 0
50 2 0.982379 0.508739 0.964866 0 0 0
46 2 14.8616 3.36552 2.37694 0 1 1
38 2 11.9331 3.93175 1.73226 0 1 0
140 1 10.952 2.38971 1.12179 0 1 0
114 1 12.1095 5.40506 0.638988 0 0 1
146 1 13.3107 2.52605 1.41933 0 1 1
185 1 15.7377 4.79808 3.16221 -1 1 1
92 1 15.271 1.98612 3.44852 0 1 1
70 1 11.2458 3.75701 3.74851 -1 0 0
113 1 12.4237 0.210996 2.23189 -1 1 1
56 2 0.216844 5.66549 0.125447 0 1 1
11 2 0.851354 8.6584 3.591 1 0 1
25 2 1.14474 10.3561 0.251823 1 0 0
110 1 15.5777 7.00726 1.46489 0 0 0
157 1 1.13502 9.75326 1.93708 0 0 1
123 1 0.322263 6.8923 14.541 0 0 0
179 1 15.885 7.33071 4.39823 0 0 1
133 1 1.09033 8.88187 5.90692 1 0 0
125 1 2.78174 10.7869 15.0771 0 0 -1
69 1 13.4801 4.50035 3.20692 -1 0 0
3 2 14.5567 6.11601 3.42581 0 0 0
142 1 15.1365 9.8448 3.21716 -1 0 0
120 1 13.5279 7.66213 2.61752 0 0 1
153 1 12.6328 8.72324 0.456431 0 0 1
49 2 14.3125 8.18717 0.956564 0 0 0
160 1 0.123283 12.1391 0.998658 1 0 1
98 1 0.944528 0.524706 2.73194 1 1 1
30 2 13.8068 14.9572 3.00754 0 0 0
72 1 12.7239 14.6475 4.22138 0 0 0
158 1 1.24204 10.4884 4.22373 1 0 0
62 2 15.5431 11.7583 2.74338 -1 -1 0
152 1 14.8046 15.7647 4.62209 0 0 0
80 1 14.4791 13.4382 3.08026 -1 0 0
2 2 2.92066 3.62452 6.99417 0 0 0
88 1 15.7251 1.65775 6.41981 0 0 0
161 1 3.48662 2.05375 7.04375 0 0 0
77 1 1.88392 2.80172 8.64436 0 0 -1
14 2 3.05286 2.26411 10.1599 0 0 0
183 1 14.8256 1.91909 10.4703 0 0 1
67 1 4.68039 4.26548 6.30676 0 1 0
151 1 3.34626 5.09803 8.42341 1 1 0
166 1 4.69361 3.28908 9.57571 0 1 0
129 1 7.20807 5.93935 6.91846 0 0 0
60 2 5.93639 4.6083 7.72553 0 1 0
84 1 8.80012 3.59769 11.2482 0 1 0
189 1 11.8207 3.39278 11.4406 0 1 0
173 1 7.56964 3.52044 7.55867 0 1 1
167 1 6.96446 5.52508 9.25036 0 1 0
13 2 9.40914 3.05233 7.16454 0 0 0
47 2 5.94836 3.06472 10.9187 0 0 0
145 1 10.8981 2.61883 6.37736 1 0 -1
147 1 9.2157 5.68583 9.53376 0 0 0
16 2 11.9456 4.37294 5.21885 0 0 0
42 2 15.5189 2.0927 8.40914 0 0 0
156 1 0.971805 0.444951 8.39675 1 0 0
17 2 12.5294 2.06871 7.37002 -1 1 0
115 1 12.7291 4.22404 7.16016 0 0 1
9 2 0.217243 0.909107 4.65081 1 0 0
184 1 15.1108 3.97007 8.24785 0 1 0
162 1 12.9893 15.3165 9.98245 -1 -1 -1
32 2 12.548 1.05152 10.5042 0 0 0
48 2 10.6405 4.53015 10.5107 0 0 0
97 1 9.8938 3.37406 9.1423 0 0 0
148 1 13.2207 2.14209 8.99218 0 1 0
89 1 11.9611 5.76564 10.1561 0 0 -1
130 1 2.02105 6.04884 6.55771 1 0 0
51 2 0.491459 7.1739 6.38974 0 0 1
170 1 2.92946 7.99799 4.44341 1 1 1
94 1 3.49196 8.57359 7.89756 0 1 -1
55 2 2.79949 6.99416 8.43857 0 0 0
81 1 1.03023 7.50968 8.24394 0 0 0
34 2 3.86071 8.77767 5.7041 1 0 1
41 2 15.6301 8.11913 9.62104 -1 0 -1
107 1 2.71319 11.0591 9.69251 1 0 0
65 1 10.0797 5.26294 6.4638 0 0 0
20 2 7.85196 5.80966 10.9239 0 0 0
75 1 5.55442 8.45383 6.55703 1 0 0
126 1 5.57518 10.3782 8.3864 0 0 0