LAMMPS (22 Jul 2025 - Update 2)
# TIO2 MELT QUENCH

variable runString string hot_nvt

units             real
dimension         3
atom_style        charge

boundary p p p
read_data         start.data
Reading data file ...
  orthogonal box = (0 0 0) to (16 16 16)
  1 by 1 by 1 MPI processor grid
  reading atoms ...
  189 atoms
  read_data CPU = 0.001 seconds

pair_style buck/coul/long 10.0
pair_coeff 2 2 717654 0.154 120.997
pair_coeff 1 2 391053 0.194 290.392
pair_coeff 1 1 271719 0.234 696.941

kspace_style      ewald 1.0e-4

#fix               F1 all nve
#fix               F2 all npt temp 3000.0 3000.0 $(100*dt) iso 0 0 #(100*dt)
fix               F3 all nvt temp 3000.0 3000.0 $(100*dt)
fix               F3 all nvt temp 3000.0 3000.0 100
#fix               F4 all temp/rescale 1 10.0 10.0 5.0 1.0

#velocity          all create 800.0 97475745 dist gaussian

group Ti type 2
63 atoms in group Ti
group O type 1
126 atoms in group O

#compute TiMSD Ti msd com yes average no
#compute OMSD O msd com yes average no
#fix 1 Ti ave/time 1 1 200 c_TiMSD[*] file ${runString}.msdTi mode vector
#fix 2 O ave/time 1 1 200 c_OMSD[*] file ${runString}.msdO mode vector


neighbor          0.3 bin
neigh_modify      delay 0 every 1 check yes

thermo            100
thermo_style custom step temp pxx pyy pzz density pe

dump D1 all custom 10000 ${runString}.dump id type x y z ix iy iz
dump D1 all custom 10000 hot_nvt.dump id type x y z ix iy iz


timestep          0.5
run               200000
Ewald initialization ...
  using 12-bit tables for long-range coulomb
  G vector (1/distance) = 0.28450507
  estimated absolute RMS force accuracy = 0.033213181
  estimated relative force accuracy = 0.00010002051
  KSpace vectors: actual max1d max3d = 257 5 665
                  kxmax kymax kzmax  = 5 5 5
Generated 0 of 1 mixed pair_coeff terms from geometric mixing rule
Neighbor list info ...
  update: every = 1 steps, delay = 0 steps, check = yes
  max neighbors/atom: 2000, page size: 100000
  master list distance cutoff = 10.3
  ghost atom cutoff = 10.3
  binsize = 5.15, bins = 4 4 4
  1 neighbor lists, perpetual/occasional/extra = 1 0 0
  (1) pair buck/coul/long, perpetual
      attributes: half, newton on
      pair build: half/bin/atomonly/newton
      stencil: half/bin/3d
      bin: standard
Per MPI rank memory allocation (min/avg/max) = 12 | 12 | 12 Mbytes
   Step          Temp           Pxx            Pyy            Pzz          Density         PotEng    
         0   0             -19421.676      9607.6365      19458.937      2.0397933     -18220.221    
       100   25685.736      239084.33      142501.06      201591.08      2.0397933     -43360.806    
       200   12792.657      47290.452      35608.673      58097.568      2.0397933     -45208.923    
       300   9192.1064      10797.821     -14216.241     -8552.7074      2.0397933     -47951.958    
       400   6496.1395     -17105.553     -27733.85      -15998.432      2.0397933     -49277.052    
       500   5307.5741     -24405.339     -27858.483     -33983.96       2.0397933     -50414.074    
       600   4705.1247     -31336.523     -15952.279     -39321.315      2.0397933     -51415.77     
       700   3787.1922     -25006.72      -35592.6       -37919.681      2.0397933     -51907.829    
       800   3415.408      -23507.429     -37599.288     -36509.517      2.0397933     -52396.327    
       900   3254.8542     -19484.078     -47158.024     -29930.041      2.0397933     -52836.778    
      1000   2757.3935     -37823.594     -34201.567     -40723.21       2.0397933     -52970.429    
      1100   2751.5139     -27725.442     -39918.119     -31012.991      2.0397933     -53221.812    
      1200   2589.256      -47914.332     -35866.05      -48070.572      2.0397933     -53287.736    
      1300   2795.547      -34843.904     -31927.452     -34270.506      2.0397933     -53462.732    
      1400   2736.2325     -14536.768     -33914.721     -22259.871      2.0397933     -53418.064    
      1500   2608.528      -31298.907     -33083.035     -28700.022      2.0397933     -53259.499    
      1600   2851.2902     -5739.1212     -10089.493     -12025.055      2.0397933     -53241.427    
      1700   3164.1687     -12864.795     -21636.75      -41775.856      2.0397933     -53245.784    
      1800   3066.4894     -18061.03      -14968.743     -20512.133      2.0397933     -53041.606    
      1900   3215.8255     -22643.163     -24212.952     -25503.047      2.0397933     -53020.084    
      2000   3427.0717     -6844.5531     -25729.834     -24049.923      2.0397933     -53131.911    
      2100   3238.2467     -30090.236     -28782.694     -40210.007      2.0397933     -53102.302    
      2200   3041.2592     -1276.5523     -28593.657     -43031.196      2.0397933     -53103.437    
      2300   2866.7714     -21591.018     -19540.455     -40503.597      2.0397933     -53139.114    
      2400   2853.3323      1359.7281     -41365.015     -39117.054      2.0397933     -53237.496    
      2500   3039.9755     -28241.63      -21062.324     -17373.409      2.0397933     -53410.209    
      2600   2915.6547     -14765.73      -4300.459      -15506.674      2.0397933     -53373.721    
      2700   2857.4704     -23759.44      -41362.004     -35392.411      2.0397933     -53335.725    
      2800   3117.1632     -24185.014     -33145.98      -27893.185      2.0397933     -53442.434    
      2900   2955.7008     -31769.448     -3106.2666     -16270.669      2.0397933     -53306.794    
      3000   3206.9976     -22450.283     -22426.668     -26617.205      2.0397933     -53375.4      
      3100   3071.4945     -16689.553     -30325.793     -13907.48       2.0397933     -53219.637    
      3200   2950.8237     -5219.2658     -33936.673     -25170.133      2.0397933     -53080.706    
      3300   3192.02       -11492.083     -20466.809     -18287.027      2.0397933     -53155.197    
      3400   3055.5038     -4504.5993     -25069.461     -24415.453      2.0397933     -53055.634    
      3500   3024.6407     -13482.361     -17781.136     -14619.591      2.0397933     -53055.567    
      3600   2829.926      -4549.4455     -22233.352     -23910.888      2.0397933     -52982.276    
      3700   2812.937      -13864.571     -4785.718      -17485.998      2.0397933     -52977.154    
      3800   2985.9606     -28634.685     -32645.327     -24928.661      2.0397933     -53066.658    
      3900   3052.5205     -12946.212     -16864.301     -19627.838      2.0397933     -53100.933    
      4000   2897.1359     -26102.888     -36335.087     -27089.061      2.0397933     -53017.694    
      4100   3170.229      -10872.258     -22179.874     -4379.2813      2.0397933     -53166.081    
      4200   3160.306      -34251.771     -26450.319     -33164.586      2.0397933     -53183.527    
      4300   3086.0511     -13018.485     -23566.184     -390.34759      2.0397933     -53176.908    
      4400   2966.8646     -29565.624     -35415.599     -26170.374      2.0397933     -53186.217    
      4500   2860.9338     -19904.515     -17308.285     -22323.541      2.0397933     -53228.76     
      4600   2983.9408     -15072.969     -27058.24      -16862.315      2.0397933     -53387.623    
      4700   2708.0434     -25081.846     -18399.036     -7735.1767      2.0397933     -53294.065    
      4800   2689.3725     -24390.963     -30400.074     -49245.665      2.0397933     -53291.995    
      4900   2801.2309     -1003.5655     -13374.176     -27336.559      2.0397933     -53293.394    
      5000   3038.9095     -16812.609     -2416.3667     -6056.5683      2.0397933     -53314.301    
      5100   3228.3571     -30230.604     -11443.497     -18928.851      2.0397933     -53291.438    
      5200   2943.3948     -7796.9778     -26780.383     -16665.559      2.0397933     -53030.732    
      5300   3252.3601     -295.17396     -24409.806     -14226.991      2.0397933     -53144.062    
      5400   3202.1574     -34851.82      -46370.759     -30253.968      2.0397933     -53133.341    
      5500   3018.3531     -26786.134     -34266.319     -12339.079      2.0397933     -53105.181    
      5600   3063.2536     -24908.723     -35920.342     -28581.386      2.0397933     -53208.008    
      5700   2979.0357     -4198.1707     -26692.814     -15085.436      2.0397933     -53225.815    
      5800   2891.8852     -15972.945     -22398.597     -9407.5419      2.0397933     -53220.332    
      5900   2660.6219     -22738.901     -17225.723     -29566.049      2.0397933     -53099.426    
      6000   2998.8176     -6309.8297     -10552.877     -16758.289      2.0397933     -53235.526    
      6100   3288.4157     -10848.047     -19955.696     -28982.788      2.0397933     -53325.972    
      6200   3173.6571     -32401.118     -33075.037     -5618.2457      2.0397933     -53229.691    
      6300   3087.8065     -8519.1846     -2754.9135     -27381.791      2.0397933     -53217.543    
      6400   2962.7872      14713.341      12559.446      414.62344      2.0397933     -53222.26     
      6500   3166.7891     -19559.991     -18304.078     -15323.581      2.0397933     -53425.609    
      6600   2943.08       -16744.162     -20929.859     -3376.2867      2.0397933     -53398.103    
      6700   2965.3401     -16150.137     -22415.289     -17029.898      2.0397933     -53476.567    
      6800   2800.7471     -5632.612      -10159.465     -1017.5318      2.0397933     -53406.124    
      6900   2925.3719     -15089.528     -7205.426      -5232.4862      2.0397933     -53455.418    
      7000   2797.5667     -9025.1467     -6049.8973     -17228.637      2.0397933     -53343.146    
      7100   2789.1948     -4339.9582      5400.934      -21208.621      2.0397933     -53276.695    
      7200   2930.6524     -25046.614     -23681.958     -32849.073      2.0397933     -53277.521    
      7300   2955.7281     -34297.949     -21827.49      -6085.7377      2.0397933     -53218.357    
      7400   3240.7465     -14176.558     -21674.949     -13602.322      2.0397933     -53330.236    
      7500   3249.4292     -26017.271     -6446.5813     -20761.105      2.0397933     -53328.489    
      7600   3050.3235     -26324.783     -25640.605     -23595.79       2.0397933     -53234.328    
      7700   3172.133      -17998.781     -32667.768     -24104.259      2.0397933     -53347.043    
      7800   3012.8007     -14912.703     -13763.132     -15440.168      2.0397933     -53313.527    
      7900   3037.7692     -21431.911     -19642.381     -15623.775      2.0397933     -53419.377    
      8000   2657.3861     -18455.286     -16000.536     -33224.827      2.0397933     -53292.716    
      8100   3053.8237     -2601.2536     -11917.105     -27021.056      2.0397933     -53547.392    
      8200   2967.9562     -14987.013     -18321.52      -14157.226      2.0397933     -53504.635    
      8300   2780.4243     -17413.654     -8554.4591     -17370.31       2.0397933     -53378.121    
      8400   2788.788      -12911.448     -18894.905     -4178.6663      2.0397933     -53333.089    
      8500   2869.9167     -14953.229     -10664.006     -21771.752      2.0397933     -53298.892    
      8600   3274.1025     -6569.3277      8849.8688     -2033.002       2.0397933     -53406.906    
      8700   3100.4656     -19426.823     -15109.061     -9.5420455      2.0397933     -53206.979    
      8800   3358.2065     -6848.7554     -21123.19       1552.8933      2.0397933     -53277.452    
      8900   3288.0605     -10053.366     -10355.048     -2400.164       2.0397933     -53242.013    
      9000   2940.5345     -17365.764      4465.3561      4621.5583      2.0397933     -53150.606    
      9100   3118.6499     -930.7672      -9343.4712     -12593.684      2.0397933     -53373.64     
      9200   2826.5906     -11630.364     -25298.023     -16923.228      2.0397933     -53317.817    
      9300   2797.5273     -25981.649     -28550.834     -20198.554      2.0397933     -53352.072    
      9400   3006.7651     -429.3743       4121.4017     -12752.348      2.0397933     -53451.199    
      9500   2873.6729     -29481.19      -21715.912     -14175.768      2.0397933     -53326.006    
      9600   2840.7509     -35913.255     -21054.414     -18393.697      2.0397933     -53225.559    
      9700   3099.4828     -11487.024     -14444.593     -2152.536       2.0397933     -53288.224    
      9800   3141.1511     -26366.382     -11643.93      -25400.319      2.0397933     -53284.075    
      9900   3003.7664     -2266.9551     -28683.707      9339.8619      2.0397933     -53231.274    
     10000   3222.6112     -15972.252     -18224.04      -16389.514      2.0397933     -53419.771    
     10100   3132.311      -11755.184     -12556.706     -2465.2162      2.0397933     -53453.013    
     10200   2878.0769     -19870.696     -14523.367     -13596.179      2.0397933     -53391.487    
     10300   2885.796      -3236.1064     -4438.5193     -8800.3914      2.0397933     -53443.239    
     10400   2954.3705     -17142.295     -4819.3984     -19119.535      2.0397933     -53475.562    
     10500   3234.7237     -6914.9642     -5454.319      -30585.354      2.0397933     -53591.475    
     10600   2788.3868     -27079.338     -17147.243     -26072.113      2.0397933     -53307.74     
     10700   3040.5048      713.92523     -40168.827     -6183.8243      2.0397933     -53401.066    
     10800   3178.061       1825.2757     -17802.835     -14046.269      2.0397933     -53448.46     
     10900   3026.0685     -7360.2955     -9220.3329     -26013.334      2.0397933     -53363.231    
     11000   2986.0594      2747.234      -8283.6766      15180.988      2.0397933     -53356.173    
     11100   2898.6111     -3308.9791     -9127.8018     -36952.733      2.0397933     -53347.164    
     11200   2973.0023     -11201.064     -14308.009     -17125.602      2.0397933     -53434.416    
     11300   2935.0293     -5544.8761     -11243.405     -13079.746      2.0397933     -53440.226    
     11400   2962.0132     -4458.5139     -19009.153     -16435.639      2.0397933     -53457.288    
     11500   2758.2223     -16999.526     -38032.552     -10121.585      2.0397933     -53314.466    
     11600   2883.5601     -3363.4717     -18207.047     -1263.4793      2.0397933     -53328.487    
     11700   3089.6455     -28548.863     -18240.846     -19251.359      2.0397933     -53390.082    
     11800   3237.9956     -20540.844     -47082.148     -19716.879      2.0397933     -53428.971    
     11900   2963.7623     -202.93906     -8321.7129     -19117.784      2.0397933     -53273.214    
     12000   3211.81       -18765.728     -14508.267     -11635.847      2.0397933     -53427.171    
     12100   2865.7426     -15244.07      -17075.521     -33481.097      2.0397933     -53255.094    
     12200   2917.9102     -20290.786      3832.9383     -8125.8683      2.0397933     -53285.092    
     12300   2952.3412     -31470.615     -44167.117     -42121.469      2.0397933     -53292.837    
     12400   2832.6117     -14047.967      2465.3575     -17235.006      2.0397933     -53206.032    
     12500   3139.1666     -16433.067     -825.26502     -6440.9249      2.0397933     -53347.211    
     12600   2877.7677     -8080.1417     -26074.635     -6703.7221      2.0397933     -53191.1      
     12700   3138.5726     -1260.4852     -10333.494      251.22813      2.0397933     -53316.171    
     12800   3257.5038      3245.6317     -8567.4056     -21791.073      2.0397933     -53368.605    
     12900   2774.2089     -10523.139     -7316.011      -23619.136      2.0397933     -53126.673    
     13000   2988.9783      3971.8098     -12799.44      -10204.295      2.0397933     -53252.397    
     13100   2824.2616     -27074.912     -10056.927     -26879.407      2.0397933     -53137.088    
     13200   3118.5349     -23353.934     -12430.918     -30607.35       2.0397933     -53231.705    
     13300   3343.1045     -7255.5798     -20889.871     -15359.69       2.0397933     -53293.989    
     13400   3392.3544     -26485.118     -30013.658     -20630.952      2.0397933     -53300.983    
     13500   3553.738      -5610.565      -3752.971      -29038.957      2.0397933     -53432.573    
     13600   3286.7485      13241.384     -2520.3067     -6766.5427      2.0397933     -53388.051    
     13700   2950.7072     -14656.856     -25779.127     -30279.39       2.0397933     -53323.359    
     13800   2932.2288     -1134.1293     -5526.1588      1156.407       2.0397933     -53407.361    
     13900   2805.6485     -17434.798     -7310.5139     -13211.41       2.0397933     -53398.292    
     14000   2775.9111     -5857.0274     -14581.767     -25565.761      2.0397933     -53386.239    
     14100   2839.7062     -1261.9895     -9471.7981      3708.7912      2.0397933     -53370.689    
     14200   2785.579      -15920.816     -8897.8457     -38216.36       2.0397933     -53248.808    
     14300   3015.293      -39109.956     -13634.873     -34533.417      2.0397933     -53248.433    
     14400   3060.4178     -14952.381     -21148.65       1186.4128      2.0397933     -53149.373    
     14500   3163.8118     -24745.324     -24848.26      -3307.4945      2.0397933     -53115.476    
     14600   3249.5317     -10738.613     -6096.7327     -19973.777      2.0397933     -53147.403    
     14700   2927.7856     -14115.387     -16071.255     -21151.838      2.0397933     -53006.227    
     14800   3136.3292     -22515.482     -19415.778     -20207.724      2.0397933     -53178.896    
     14900   3172.4954     -15594.135     -27934.727     -18559.409      2.0397933     -53299.558    
     15000   2998.2838     -16441.327      1749.7955     -14513.68       2.0397933     -53319.452    
     15100   2983.256      -22263.357     -1529.7486     -86.123326      2.0397933     -53427.995    
     15200   2878.1537     -19045.788     -15807.11      -21526.293      2.0397933     -53476.372    
     15300   2709.7068     -25196.625     -10470.414     -5192.104       2.0397933     -53454.154    
     15400   2761.989      -24586.084     -36020.647     -11370.655      2.0397933     -53501.282    
     15500   3005.3291     -31942.937     -2229.4174      3544.5651      2.0397933     -53595.637    
     15600   2987.7503     -11357.897      2391.7301     -29768.683      2.0397933     -53502.287    
     15700   2940.3174     -21228.068     -2858.0621     -9299.9241      2.0397933     -53356.711    
     15800   3142.5082     -1613.407      -6219.156      -17074.788      2.0397933     -53350.478    
     15900   3077.0627     -35589.494     -16352.879     -23004.113      2.0397933     -53243.038    
     16000   2994.22       -53590.124      1349.6597     -18019.451      2.0397933     -53157.457    
     16100   2969.6769     -25251.776     -11690.644     -6219.4136      2.0397933     -53137.621    
     16200   3029.1061     -17120.048     -20487.969     -39671.207      2.0397933     -53160.922    
     16300   3329.905      -9659.5319     -3576.7376     -24772.369      2.0397933     -53327.594    
     16400   2899.9125     -17058.542     -11700.951     -16636.287      2.0397933     -53125.965    
     16500   3109.0592     -31710.649     -16009.779     -8797.8765      2.0397933     -53272.246    
     16600   3261.472      -8687.618      -9999.5035     -31088.221      2.0397933     -53428.534    
     16700   3157.8854     -33357.738      3400.3519     -19971.972      2.0397933     -53493.6      
     16800   2645.3052     -34782.317     -32376.868     -27343.128      2.0397933     -53335.353    
     16900   2776.3466     -23175.72      -44438.953     -20539.504      2.0397933     -53472.672    
     17000   2824.545      -24987.77      -23096.774     -12165.973      2.0397933     -53497.415    
     17100   2843.5644     -14062.472     -16142.654     -18498.517      2.0397933     -53444.665    
     17200   2895.9531     -17058.429     -41167.793     -20429.142      2.0397933     -53385.325    
     17300   3121.5586     -23478.766     -9251.3566     -12452.845      2.0397933     -53402.883    
     17400   2999.0168     -4445.8869     -35607.452     -20129.095      2.0397933     -53243.859    
     17500   3129.0379     -6318.0059     -14436.104     -10334.498      2.0397933     -53253.191    
     17600   3010.5324     -8390.6731     -17527.107     -29804.129      2.0397933     -53152.373    
     17700   3230.8866     -16266.356     -29548.003     -840.61768      2.0397933     -53278.167    
     17800   3322.2397     -24392.948     -14907.61      -21150.213      2.0397933     -53418.65     
     17900   2812.2285     -6601.4986     -18242.022     -25658.917      2.0397933     -53254.209    
     18000   3045.9412     -18137.838     -11231.789     -473.32716      2.0397933     -53445.877    
     18100   3066.1222     -13194.055     -16193.337     -10250.539      2.0397933     -53538.61     
     18200   3027.1141     -23645.592     -20536.314     -29877.875      2.0397933     -53621.087    
     18300   2891.4563     -16452.871      2363.9528     -9041.5894      2.0397933     -53622.565    
     18400   2652.8715     -13598.7       -14330.818     -12920.986      2.0397933     -53522.521    
     18500   2596.4463     -17653.527     -2538.7242     -13328.882      2.0397933     -53445.354    
     18600   3023.4929      4448.1497     -18913.556     -20424.219      2.0397933     -53571.09     
     18700   2799.9258     -4732.9014     -4170.1115     -10389.528      2.0397933     -53360.72     
     18800   2921.821       498.66877     -766.75443     -7368.9208      2.0397933     -53385.378    
     18900   2930.1351      3256.2713      12582.205     -28844.96       2.0397933     -53360.876    
     19000   2761.6361     -25203.661     -2661.4958     -21284.939      2.0397933     -53226.233    
     19100   2894.8645      16036.617      10615.298      1546.92        2.0397933     -53247.271    
     19200   3006.7079     -14508.051     -4425.2918     -37047.286      2.0397933     -53297.373    
     19300   3265.2242     -23456.578     -17105.667     -16347.357      2.0397933     -53487.961    
     19400   2988.4875     -4193.6734     -13816.348     -382.91029      2.0397933     -53473.436    
     19500   2904.9553     -14384.34      -19182.352     -17786.422      2.0397933     -53560.771    
     19600   2869.3472     -6841.3063     -3083.1297     -24428.089      2.0397933     -53597.085    
     19700   2986.4737      12365.668     -4721.4267     -5325.5716      2.0397933     -53672.961    
     19800   2893.7601      19549.089     -14389.818     -8300.1452      2.0397933     -53622.597    
     19900   2811.1988     -11306.032      5779.312       4253.2754      2.0397933     -53552.29     
     20000   2960.5975     -1090.5974      18601.356     -4806.6148      2.0397933     -53593.991    
     20100   3000.2006     -20539.701     -2752.511      -13325.752      2.0397933     -53534.921    
     20200   3157.19       -10040.614     -12258.237     -14394.046      2.0397933     -53481.514    
     20300   3262.3431     -9091.1635     -19638.903     -17537.135      2.0397933     -53438.218    
     20400   3356.0733      3019.0997     -21847.678     -20690.439      2.0397933     -53473.882    
     20500   2922.5997     -18020.495     -9383.2252     -8371.0809      2.0397933     -53263.997    
     20600   3137.9572     -11738.827     -2294.9711      9820.7911      2.0397933     -53424.452    
     20700   3091.5268     -279.63555     -12881.95       8053.9071      2.0397933     -53471.552    
     20800   3021.3317     -9898.4161      5471.8796     -17045.678      2.0397933     -53491.969    
     20900   3146.8156     -16171.436     -23509.256     -14231.364      2.0397933     -53600.13     
     21000   2804.1961     -21605.105     -6968.3962     -22130.397      2.0397933     -53453.058    
     21100   2962.1178     -13064.845     -27817.779     -10001.726      2.0397933     -53550.021    
     21200   2757.5467     -15959.404      8087.0041     -24218.399      2.0397933     -53417.745    
     21300   2827.3871     -26542.562     -13965.415     -20470.375      2.0397933     -53366.782    
     21400   3282.1434     -20777.646     -7282.5641     -2978.0236      2.0397933     -53414.045    
     21500   3230.6712      14735.37      -3548.8278      2420.4219      2.0397933     -53309.077    
     21600   3309.06       -15276.687     -44583.336     -14046.705      2.0397933     -53363.867    
     21700   2926.6226      4856.4955     -9341.7988     -20895.889      2.0397933     -53188.852    
     21800   3096.2306      8631.3884      3900.7498      2961.7467      2.0397933     -53343.397    
     21900   2929.0531      3899.2834     -14819.135     -24109.585      2.0397933     -53345.927    
     22000   3154.132      -15531.746     -38107.778     -21840.429      2.0397933     -53532.931    
     22100   3027.8466     -18364.784     -29782.485     -29089.539      2.0397933     -53503.682    
     22200   2686.2738     -27373.763     -46740.747     -31285.411      2.0397933     -53334.296    
     22300   2660.0831     -11210.662     -34407.538     -10682.688      2.0397933     -53265.495    
     22400   3027.2429      1066.0695     -37862.493     -11212.825      2.0397933     -53290.675    
     22500   3106.6081      2531.0998     -25043.261     -16782.121      2.0397933     -53222.343    
     22600   3052.7608     -12000.502     -23630.101     -17094.143      2.0397933     -53181.536    
     22700   2911.6864     -15540.033     -28677.559     -35077.943      2.0397933     -53124.911    
     22800   2971.8463     -15922.502     -37032.66      -35451.481      2.0397933     -53190.792    
     22900   3156.1265     -6190.5528     -28932.883     -2372.6864      2.0397933     -53352.618    
     23000   3036.0012     -20396.536     -12285.478     -28920.865      2.0397933     -53360.611    
     23100   2844.4028     -16977.859     -33563.986     -12713.042      2.0397933     -53327.183    
     23200   2703.5663     -23504.432     -22084.759     -19360.615      2.0397933     -53293.004    
     23300   3040.6827      2647.4703     -24707.815     -12480.868      2.0397933     -53477.219    
     23400   2948.1512     -1286.6147     -30820.89      -15383.675      2.0397933     -53404.363    
     23500   2805.6774     -11360.354     -9434.7123     -26211.742      2.0397933     -53247.413    
     23600   2955.4916      7921.9519     -16123.751     -12952.508      2.0397933     -53173.17     
     23700   3550.979       8192.1944      13144.424      105.81425      2.0397933     -53400.824    
     23800   3145.0077     -9747.7319      3115.5853     -5757.9084      2.0397933     -53187.262    
     23900   3215.7026     -12912.21      -16659.314     -15730.6        2.0397933     -53309.573    
     24000   3000.0989     -14826.32       3946.4406     -17346.831      2.0397933     -53310.948    
     24100   2776.6386     -37183.35      -28870.08      -31098.14       2.0397933     -53258.72     
     24200   3124.9557     -6574.6481      11697.813     -18480.445      2.0397933     -53471.095    
     24300   3112.8794     -19261.048     -11475.349     -5746.9674      2.0397933     -53480.723    
     24400   2933.1702     -14878.485     -16040.578     -5185.2935      2.0397933     -53404.469    
     24500   3100.3529      2758.3368      28197.214      3432.3222      2.0397933     -53523.091    
     24600   2893.3061     -28508.232     -36573.537     -36850.618      2.0397933     -53463.357    
     24700   2952.8121     -29958.88      -27162.577     -45346.089      2.0397933     -53573.16     
     24800   2613.4181     -25040.903     -14466.75      -13955.451      2.0397933     -53452.604    
     24900   2852.2937     -1475.449      -3476.7909     -18058.91       2.0397933     -53584.685    
     25000   2975.8221     -10183.89      -12196.426     -32351.937      2.0397933     -53561.642    
     25100   3229.5546     -8792.7478     -13438.487     -36559.635      2.0397933     -53571.006    
     25200   3041.2254     -24608.859     -29101.42      -24663.157      2.0397933     -53391.46     
     25300   2955.8462     -5616.1001     -4428.7079      3179.4119      2.0397933     -53310.363    
     25400   3222.3967     -7456.9445     -26208.772     -30007.477      2.0397933     -53435.576    
     25500   3041.2436     -12022.365     -9266.2038     -16794.218      2.0397933     -53333.285    
     25600   3208.4448     -31648.006     -33521.662     -3669.1293      2.0397933     -53436.052    
     25700   3060.9479      1610.9413     -31854.609      3768.5137      2.0397933     -53411.488    
     25800   2994.6246     -1787.2355     -4045.1755      14389.222      2.0397933     -53528.906    
     25900   3199.6853      10822.591      13819.762      4473.6455      2.0397933     -53776.092    
     26000   2685.4241     -22728.261     -10171.811     -18635.603      2.0397933     -53547.638    
     26100   2819.946      -15122.285     -14398.349     -18834.201      2.0397933     -53606.039    
     26200   2860.2761     -30265.836     -8431.2262     -20821.53       2.0397933     -53587.243    
     26300   2862.3479     -10708.225     -16326.245     -17191.862      2.0397933     -53510.2      
     26400   3288.4361     -7236.4122     -28000.02       985.51002      2.0397933     -53648.243    
     26500   2861.9056     -5397.9803     -26795.579     -16252.935      2.0397933     -53355.856    
     26600   2795.9283     -24230.843     -36292.595     -12761.041      2.0397933     -53278.961    
     26700   3080.3581     -9147.3886     -10532.561     -4881.2093      2.0397933     -53397.738    
     26800   3392.7584     -5048.1725     -23015.12      -19926.657      2.0397933     -53544.705    
     26900   3213.9407     -26992.86      -3038.4238     -27222.323      2.0397933     -53449.976    
     27000   3037.7155      713.18754     -23169.192     -6345.1771      2.0397933     -53386.928    
     27100   2979.7536      15205.225     -28347.2       -43715.026      2.0397933     -53402.474    
     27200   2983.9207      1596.4317      1283.7049     -20361.449      2.0397933     -53438.136    
     27300   3017.0591     -12036.889     -11899.905     -31077.608      2.0397933     -53483.701    
     27400   2892.6938     -37973.914     -24395.161     -28667.909      2.0397933     -53432.749    
     27500   3167.1254     -6596.9271     -22997.202      11922.45       2.0397933     -53580.718    
     27600   3060.3367     -1491.2748     -5782.428      -22123.76       2.0397933     -53524.763    
     27700   3001.3937     -17313.347     -21517.355     -22640.329      2.0397933     -53496.117    
     27800   2967.8634     -7553.6835     -4969.6317     -13471.389      2.0397933     -53459.32     
     27900   3116.0957      12288.85      -6361.3521     -7151.3541      2.0397933     -53514.218    
     28000   3053.6101      4774.0631      10208.364     -6277.835       2.0397933     -53441.41     
     28100   3253.5801     -6978.9445      16020.419      12396.451      2.0397933     -53456.825    
     28200   3299.5758     -926.18882     -9309.66       -18535.986      2.0397933     -53371.047    
     28300   3370.086      -14301.536     -28077.594     -16088.029      2.0397933     -53328.051    
     28400   3039.9777     -9596.4518     -15744.955     -11960.443      2.0397933     -53084.709    
     28500   3295.5428     -6815.918      -5422.4271     -6240.3985      2.0397933     -53176.069    
     28600   3527.1237     -11578.147     -33600.953     -3684.9711      2.0397933     -53271.308    
     28700   3346.7762     -4301.6188     -17051.603     -5278.0822      2.0397933     -53233.148    
     28800   3012.4164      3119.4176     -3280.0651      8886.6778      2.0397933     -53200.842    
     28900   3115.1827     -1812.9798     -17431.927     -8787.9579      2.0397933     -53384.473    
     29000   2981.9769     -9704.473      -23897.772     -649.82799      2.0397933     -53386.476    
     29100   2922.6688     -5305.0602     -22186.39      -24681.441      2.0397933     -53394.315    
     29200   2984.8863     -4342.4646     -12879.452     -11833.282      2.0397933     -53439.952    
     29300   2916.2065      8343.3263     -3514.5932      16440.098      2.0397933     -53406.251    
     29400   3060.9799     -9096.9289     -22330.767     -7283.0258      2.0397933     -53489.75     
     29500   3160.1393      6192.6121     -21784.693     -20822.701      2.0397933     -53570.717    
     29600   2722.0424      615.15738     -43474.15      -14699.084      2.0397933     -53366.626    
     29700   2769.1465     -14058.453     -19908.501     -1008.0349      2.0397933     -53388.05     
     29800   2975.5857     -18699.854     -7055.8617     -37624.855      2.0397933     -53432.858    
     29900   2953.5387     -2077.4044     -5399.965      -10373.078      2.0397933     -53334.096    
     30000   3006.1236     -5403.6894      32615.213      1164.6161      2.0397933     -53301.858    
     30100   3026.7659     -21315.987     -16563.324     -14062.928      2.0397933     -53272.954    
     30200   3102.6891     -9643.1508     -18086.439     -31113.937      2.0397933     -53258.35     
     30300   3131.8157      7727.1101     -21323.972     -22967.301      2.0397933     -53236.399    
     30400   3128.4061     -18678.815     -32367.574     -11899.397      2.0397933     -53214.618    
     30500   2964.193      -333.61668     -4279.6995     -12297.169      2.0397933     -53114.848    
     30600   3180.6888     -3133.7447      6260.6338     -14970.497      2.0397933     -53275.52     
     30700   3163.8063     -38214.285     -22997.837     -16756.186      2.0397933     -53402.23     
     30800   2970.4826     -20735.667     -36475.43      -20710.699      2.0397933     -53437.194    
     30900   2775.275       6886.7888      5516.8131     -2102.614       2.0397933     -53389.733    
     31000   3064.939       3292.5392      6095.1787      5842.4193      2.0397933     -53579.998    
     31100   3101.1763      4438.8662      1241.6304     -6598.7274      2.0397933     -53627.948    
     31200   2780.9552     -10545.6       -11238.37      -1676.9448      2.0397933     -53470.525    
     31300   2787.3884     -8026.146      -18535.637      989.5855       2.0397933     -53470.018    
     31400   3019.5861     -13093.097     -5892.6863     -20553.346      2.0397933     -53539.673    
     31500   2889.1311     -11534.397     -471.91494     -5349.2441      2.0397933     -53355.77     
     31600   3102.539      -1595.1952     -6995.5967     -3614.7228      2.0397933     -53353.052    
     31700   3037.5484     -24533.673     -10302.936      1019.4256      2.0397933     -53239.599    
     31800   3283.4852      14430.268      16293.608      1132.115       2.0397933     -53340.172    
     31900   2976.3151      8985.3553     -5494.1081      527.47308      2.0397933     -53178.862    
     32000   3299.166      -14720.162     -4729.1608      1213.1053      2.0397933     -53405.306    
     32100   3230.8556     -25780.619     -21151.674     -2213.4205      2.0397933     -53459.451    
     32200   3069.3455     -17728.109     -21423.09      -9652.4756      2.0397933     -53437.043    
     32300   3128.7102     -19359.049      1820.1774      6106.2392      2.0397933     -53498.6      
     32400   3175.727       2809.3648      8550.4881      2636.75        2.0397933     -53545.274    
     32500   3300.3162      13754.549      3543.1163      4668.2391      2.0397933     -53673.004    
     32600   2971.3428     -18414.829     -14811.555      1191.8615      2.0397933     -53597.713    
     32700   2961.9912     -11647.295     -15542.292     -11610.374      2.0397933     -53657.533    
     32800   3057.982       8445.2446      5766.9836     -2365.4997      2.0397933     -53742.622    
     32900   2796.5131     -18316.243     -1446.1337     -26705.324      2.0397933     -53616.632    
     33000   2996.4198     -5887.3402     -30014.107     -9414.8307      2.0397933     -53707.925    
     33100   2793.1186     -26934.927     -27856.221     -12797.778      2.0397933     -53552.653    
     33200   2951.3068     -6696.1085     -4190.1874     -13729.069      2.0397933     -53536.793    
     33300   3060.4663      7025.9742     -15415.06      -31318.593      2.0397933     -53409.552    
     33400   3296.5748     -18215.357     -1144.9605     -28198.302      2.0397933     -53445.143    
     33500   3411.2709     -7509.8494     -15246.358     -2384.3163      2.0397933     -53480.8      
     33600   3096.6977     -14724.395     -30375.265     -5931.4573      2.0397933     -53330.138    
     33700   2899.8077     -16878.445     -21716.524     -10357.816      2.0397933     -53287.196    
     33800   2909.6068     -8646.9324     -22050.27      -5313.2093      2.0397933     -53363.544    
     33900   3052.7272     -12273.878     -42315.413     -22331.951      2.0397933     -53495.244    
     34000   3015.1846     -11031.039     -7828.8403     -3801.5657      2.0397933     -53499.649    
     34100   3087.5125     -24698.137     -24655.786     -25831.507      2.0397933     -53559.538    
     34200   2966.423       583.44239     -5839.5674      1798.5403      2.0397933     -53515.536    
     34300   2807.2319     -1322.0161      15634.697      3664.9343      2.0397933     -53478.359    
     34400   2731.9165      12197.168      20333.616     -15946.451      2.0397933     -53495.493    
     34500   2857.8589     -6081.5921     -13173.714     -38644.512      2.0397933     -53599.18     
     34600   2768.4937     -10560.21      -21531.852     -13418.568      2.0397933     -53548.532    
     34700   2799.823      -7401.7066     -23381.285     -12339.643      2.0397933     -53522.013    
     34800   3169.099       236.65346     -36119.841     -13490.696      2.0397933     -53622.601    
     34900   3364.414       1076.1689     -142.96522     -26525.639      2.0397933     -53621.299    
     35000   3252.6325     -2365.8676     -11457.439     -13840.766      2.0397933     -53518.581    
     35100   3115.5058     -15631.552     -14553.047      3033.9437      2.0397933     -53456.914    
     35200   3208.0593     -13833.278      1465.5773     -33089.714      2.0397933     -53561.476    
     35300   3182.2862     -4215.6492     -3721.9596     -995.31764      2.0397933     -53629.073    
     35400   2872.592      -11681.542     -23862.276      6205.0314      2.0397933     -53542.091    
     35500   2788.9719     -19647.041     -12644.57      -9653.1689      2.0397933     -53529.742    
     35600   3035.4369     -7668.8109     -12169.968     -4310.0307      2.0397933     -53651.989    
     35700   2820.659      -11136.585     -19421.438      16201.432      2.0397933     -53507.005    
     35800   3080.5269      14917.409     -12695.845     -1745.1446      2.0397933     -53621.556    
     35900   2961.6317     -10672.402     -19709.943     -1526.9336      2.0397933     -53535.587    
     36000   2869.7607     -19250.781      8147.6083      6061.7624      2.0397933     -53454.976    
     36100   2914.059       4257.6111     -1989.4765     -5229.8891      2.0397933     -53418.035    
     36200   3159.1894     -14319.176      5472.7153     -11021.481      2.0397933     -53465.33     
     36300   3055.5984     -10207.128     -15779.575     -27165.48       2.0397933     -53334.282    
     36400   3154.9543      6349.089      -9017.5703     -18655.363      2.0397933     -53287.291    
     36500   3145.8179     -7125.143      -6850.012      -2516.6132      2.0397933     -53168.78     
     36600   3140.3521     -17153.281      4154.5526     -13797.673      2.0397933     -53097.293    
     36700   3191.5005     -31704.978     -11048.434     -36111.871      2.0397933     -53131.545    
     36800   3273.4955      7475.193      -6012.1229     -7383.5379      2.0397933     -53290.492    
     36900   2898.0472     -26416.236     -35180.673     -3837.0869      2.0397933     -53273.747    
     37000   3047.0135      2015.8126     -15888.083     -7598.8336      2.0397933     -53448.622    
     37100   2622.8677     -10150.179     -21006.719      9937.1319      2.0397933     -53248.851    
     37200   2802.7676     -6712.3618     -14125.67       5724.0266      2.0397933     -53349.187    
     37300   2907.6337     -7706.5383     -17608.747     -4866.1826      2.0397933     -53391.308    
     37400   3276.7382     -9910.9383     -23929.204      4061.1542      2.0397933     -53565.748    
     37500   2904.5408     -4771.8189     -19336.235     -4209.4575      2.0397933     -53319.643    
     37600   3179.3227     -26424.547     -20996.416     -7997.7389      2.0397933     -53423.334    
     37700   3122.9155     -19556.136     -16895.009     -17931.528      2.0397933     -53367.362    
     37800   3237.1818     -7489.211      -7683.9668     -15013.282      2.0397933     -53408.044    
     37900   3075.5164      7907.565      -9196.8926      1919.8998      2.0397933     -53355.368    
     38000   2883.7245     -5221.8387     -16337.741      7573.2937      2.0397933     -53348.976    
     38100   2776.5888     -17354.422      2741.3308      5633.9674      2.0397933     -53407.677    
     38200   2760.8833     -23589.064     -32794.508      10916.242      2.0397933     -53446.474    
     38300   2776.5834     -27962.833      11294.593     -15776.251      2.0397933     -53420.459    
     38400   2959.0254     -9682.2595     -19490.856      14183.696      2.0397933     -53444.487    
     38500   2994.065      -9169.619      -21228.495      1400.1274      2.0397933     -53390.987    
     38600   3053.9987     -17232.859     -12481.943      14354.499      2.0397933     -53390.152    
     38700   3137.6835     -2024.9393     -10928.551     -23765.206      2.0397933     -53427.376    
     38800   3194.8016     -2238.1608     -7941.5127     -12667.139      2.0397933     -53448.67     
     38900   3006.2178     -11492.074     -10190.82      -9616.8637      2.0397933     -53347.328    
     39000   3108.3532     -22356.719     -21350.825      3422.8896      2.0397933     -53409.516    
     39100   2965.406      -13069.528     -21011.06       9417.131       2.0397933     -53332.43     
     39200   3007.5294      8568.6433     -12520.664     -9138.3937      2.0397933     -53343.619    
     39300   3329.1887     -11273.855      1898.7221     -8011.9794      2.0397933     -53524.922    
     39400   3011.3975     -15588.636     -19710.965     -37573.878      2.0397933     -53413.563    
     39500   2937.4782     -19134.106     -19420.543     -32488.901      2.0397933     -53442.865    
     39600   2630.1667     -17684.311     -13499.062      6684.3055      2.0397933     -53381.716    
     39700   2675.5486     -23306.898     -24471.567     -26307.852      2.0397933     -53548.704    
     39800   2564.6756     -35902.089     -41761.912     -22947.96       2.0397933     -53576.497    
     39900   2699.1143     -7543.0479     -30387.836     -15260.881      2.0397933     -53640.737    
     40000   2881.6925     -20710.033     -25854.416     -13364.203      2.0397933     -53683.511    
     40100   2778.5226     -11541.592     -17260.129     -12719.144      2.0397933     -53573.821    
     40200   2834.7161     -21195.028     -13101.025     -9478.2763      2.0397933     -53561.217    
     40300   3052.48       -18227.373     -19589.93      -22009.533      2.0397933     -53627.853    
     40400   2755.4316     -11007.84      -27346.55      -9108.3275      2.0397933     -53405.254    
     40500   3069.6203     -30850         -3424.6485     -19359.759      2.0397933     -53512.945    
     40600   3010.9789     -20245.947     -983.3169       3143.7675      2.0397933     -53401.243    
     40700   3164.7509     -2122.4326     -9350.6926     -16664.655      2.0397933     -53410.055    
     40800   3243.9337     -10349.015     -17912.917      5694.9721      2.0397933     -53416.584    
     40900   3123.7551     -7440.1467      12747.336      4113.8623      2.0397933     -53368.88     
     41000   2922.7451     -27818.252     -12851.02      -12274.214      2.0397933     -53332.016    
     41100   2785.2846     -21785.75      -41164.287     -49225.281      2.0397933     -53407.675    
     41200   2787.3002     -11901.65       2150.7722      4569.9125      2.0397933     -53527.673    
     41300   3011.27       -14856.505      712.19901     -19134.504      2.0397933     -53667.76     
     41400   3022.6523     -24380.83      -24651.94      -13453.703      2.0397933     -53651.75     
     41500   2758.2413      8014.0742      8442.6642     -20754.524      2.0397933     -53456.119    
     41600   2638.8748      403.37358     -13766.731     -12883.296      2.0397933     -53325.182    
     41700   3015.8904     -27413.213     -4036.6209     -15055.936      2.0397933     -53436.434    
     41800   3060.7906      1695.359       16282.413     -5928.2692      2.0397933     -53376.151    
     41900   3000.1321     -3309.0019     -11728.038     -17383.414      2.0397933     -53332.787    
     42000   3038.0994     -8877.9363      12910.132      9223.9787      2.0397933     -53375.917    
     42100   3108.4933     -7704.3638      10188.238      12128.946      2.0397933     -53441.876    
     42200   3035.512      -1510.1283     -14583.958     -11871.823      2.0397933     -53442.776    
     42300   3128.3396     -22563.529     -4711.564      -18406.06       2.0397933     -53557.553    
     42400   2811.6832     -10742.201     -12884.404     -7385.9851      2.0397933     -53505.274    
     42500   2705.3707     -29017.913     -25006.483     -17635.187      2.0397933     -53561.752    
     42600   2810.8319      6213.5068     -17852.095      2082.4221      2.0397933     -53658.955    
     42700   2811.9889     -2548.1115     -22454.581     -23102.64       2.0397933     -53654.355    
     42800   2771.8488      7256.6353      1718.5665     -9639.7578      2.0397933     -53603.043    
     42900   3011.795      -28250.151     -25103.348      860.50517      2.0397933     -53620.802    
     43000   3080.3432     -2401.417      -18052.231     -3312.8343      2.0397933     -53465.257    
     43100   2863.2719     -6197.7028     -14560.342     -24628.298      2.0397933     -53244.266    
     43200   3107.1602     -13677.768     -19702.52       3824.6447      2.0397933     -53346.134    
     43300   3106.3534     -10187.169     -5961.9018     -19583.036      2.0397933     -53345.479    
     43400   3132.0916      1568.7259     -22083.725      6854.5267      2.0397933     -53391.843    
     43500   3104.3483     -16369.283     -22980.807     -16375.707      2.0397933     -53456.622    
     43600   2898.6154     -34688.808     -16431.667     -23257.881      2.0397933     -53450.922    
     43700   3134.8132     -24453.339     -18549.912     -8181.5672      2.0397933     -53655.689    
     43800   2818.3887     -6230.0333     -18951.153      4515.3352      2.0397933     -53527.963    
     43900   2734.6078     -31212.292     -34379.299     -18985.393      2.0397933     -53480.533    
     44000   2907.0042     -8983.9894     -20450.1       -24807.542      2.0397933     -53521.067    
     44100   3094.4083     -2329.4575     -13166.423     -8515.3461      2.0397933     -53571.611    
     44200   2991.5294     -6793.7876     -13076.849     -15932.95       2.0397933     -53492.355    
     44300   2949.4225     -23648.904     -23192.303     -19180.422      2.0397933     -53476.887    
     44400   2921.053       1433.4233     -20307.296     -32908.983      2.0397933     -53493.983    
     44500   2903.7277     -11369.539     -3512.0483     -18834.884      2.0397933     -53493.843    
     44600   2927.4682     -11410.895     -18886.046     -18404.177      2.0397933     -53502.146    
     44700   2869.3606     -3162.5894     -34762.453     -3477.6863      2.0397933     -53455.225    
     44800   3077.4667      22077.474     -8172.37       -11532.291      2.0397933     -53514.621    
     44900   3176.9917     -12296.009     -12934.561      5325.5127      2.0397933     -53436.579    
     45000   3272.0838     -20003.93      -8957.42       -5577.0983      2.0397933     -53346.62     
     45100   3305.9405     -770.00053     -2769.1007      3818.7922      2.0397933     -53312.486    
     45200   3107.2597     -11097.44      -14870.289     -23765.212      2.0397933     -53235.878    
     45300   3163.8465      19436.49      -4782.8969     -4050.8498      2.0397933     -53356.745    
     45400   3043.22       -20141.465      3982.6246     -15488.836      2.0397933     -53387.276    
     45500   3069.3273      5589.4605      3113.5326     -2847.3125      2.0397933     -53471.776    
     45600   3080.4339     -24677.353     -8615.9694     -4971.0196      2.0397933     -53518.886    
     45700   2918.4495      11005.057     -28180.417      2172.2501      2.0397933     -53441.34     
     45800   2938.3796      26061.235     -21656.441      9639.7263      2.0397933     -53466.564    
     45900   2869.2345     -20504.061     -40478.17      -18241.854      2.0397933     -53431.205    
     46000   2896.8486     -12458.398     -16780.337      32797.448      2.0397933     -53410.462    
     46100   3039.4241     -16713.492     -15057.035     -13478.792      2.0397933     -53381.728    
     46200   3033.1155     -12486.895     -60296.81      -12366.127      2.0397933     -53230.118    
     46300   3046.3349     -13903.312     -45568.737     -11891.527      2.0397933     -53140.452    
     46400   3293.0112     -19338.344     -11944.099     -13387.749      2.0397933     -53253.784    
     46500   3191.3799     -2967.5951     -5133.9143      5529.9961      2.0397933     -53237.208    
     46600   3194.1897     -6138.757      -11519.979     -6967.9743      2.0397933     -53301.613    
     46700   3053.3879     -7915.4492     -9709.8861     -15322.03       2.0397933     -53316.324    
     46800   2959.7541     -32975.071     -26626.756     -22372.534      2.0397933     -53332.14     
     46900   3157.3188     -9740.8477     -5088.142       17906.225      2.0397933     -53464.315    
     47000   3039.3089     -14091.473     -5368.4181      15426.732      2.0397933     -53425.576    
     47100   3009.8715     -15946.981      4571.0905     -16428.244      2.0397933     -53429.085    
     47200   3147.416       3317.6824      11842.663     -3092.7366      2.0397933     -53511.337    
     47300   2978.0389      15691.6       -10652.304     -12781.086      2.0397933     -53424.221    
     47400   3055.2683     -22098.747      14681.662     -18398.036      2.0397933     -53453.295    
     47500   3107.1182     -12032.201     -20058.237     -5510.9401      2.0397933     -53432.569    
     47600   2898.6537     -17130.76      -9230.3096     -9698.6138      2.0397933     -53246.693    
     47700   3046.7717      7301.7563     -10081.813     -9951.6928      2.0397933     -53241.345    
     47800   3140.7595     -21603.807     -3676.5107     -14640.263      2.0397933     -53231.258    
     47900   3281.0039     -14798.396     -4904.9471     -8349.6136      2.0397933     -53290.908    
     48000   3265.5223     -1065.6554     -22406.372     -28303.56       2.0397933     -53300.553    
     48100   2984.1655     -18785.475      2618.9959     -8344.4104      2.0397933     -53244.01     
     48200   2826.7989     -10571.043     -35160.654     -14170.943      2.0397933     -53305.168    
     48300   2965.8521     -6688.861       11251.297     -10842.112      2.0397933     -53447.668    
     48400   3081.1487     -14102.933     -28293.45       10003.219      2.0397933     -53532.917    
     48500   3148.6685     -14329.87      -4951.2883     -9874.0554      2.0397933     -53595.5      
     48600   3012.6067     -14512.947     -29916.979     -11088.824      2.0397933     -53544.559    
     48700   2993.3856     -5673.586      -15816.901     -11544.653      2.0397933     -53549.641    
     48800   2839.2546     -1223.027      -10127.171      1417.3902      2.0397933     -53488.73     
     48900   2789.1266      4463.0252     -12679.429     -10241.545      2.0397933     -53490.627    
     49000   2929.4131     -20120.91      -25954.332     -6955.6292      2.0397933     -53583.64     
     49100   2705.8756      3194.6842     -23373.685     -5089.9489      2.0397933     -53423.888    
     49200   3176.3859     -21993.684     -19352.99      -17951.986      2.0397933     -53582.519    
     49300   3276.534      -12600.016     -27977.009     -15276.058      2.0397933     -53549.406    
     49400   3479.7387      2518.153      -2498.325      -8706.0914      2.0397933     -53623.263    
     49500   3085.7201      10711.065     -11280.549     -27106.087      2.0397933     -53445.807    
     49600   3173.896      -6587.0942      1854.9697      5187.9625      2.0397933     -53583.62     
     49700   2789.5103     -22663.103     -17988.728      81.17043       2.0397933     -53467.277    
     49800   2838.8038     -2607.4146     -14694.486     -31638.466      2.0397933     -53531.263    
     49900   2754.5232     -10163.814     -31896.102     -34497.284      2.0397933     -53459.375    
     50000   2871.8549     -31855.502     -23451.488     -12896.302      2.0397933     -53440.84     
     50100   2881.8955     -23171.372     -7734.6279     -3369.0443      2.0397933     -53375.196    
     50200   2889.6167     -39014.965     -18737.899     -10691.715      2.0397933     -53360.586    
     50300   2960.235      -23716.962     -37292.615     -10209.151      2.0397933     -53377.185    
     50400   3028.5359     -6627.6439     -18576.051     -8285.9932      2.0397933     -53389.569    
     50500   2894.2853     -10915.378     -13701.696      28355.559      2.0397933     -53312.668    
     50600   3178.8308     -7434.0246     -16436.793      5623.6173      2.0397933     -53499.871    
     50700   3158.6258     -7217.2157     -20559.656     -12890.546      2.0397933     -53562.2      
     50800   2828.6253     -19818.444     -23485.397     -10121.358      2.0397933     -53505.547    
     50900   2731.4096     -6338.7151     -15939.747     -20916.082      2.0397933     -53538.436    
     51000   2885.7474     -10258.391     -12854.645     -9499.1651      2.0397933     -53645.453    
     51100   2817.0273     -6860.4962     -17211.938      5157.5116      2.0397933     -53574.345    
     51200   2738.5818      12898.187     -27860.817      14421.582      2.0397933     -53488.919    
     51300   2991.7931     -1859.0987      9613.4347     -7610.4797      2.0397933     -53581.23     
     51400   2942.0877     -4208.5932      15263.563     -9653.0424      2.0397933     -53520.709    
     51500   2933.1213     -20964.38      -30924.287     -17678.551      2.0397933     -53486.592    
     51600   3072.8211     -13570.055     -19010.425     -35568.421      2.0397933     -53544.904    
     51700   2793.9894     -21893.243     -15099.889     -24425.893      2.0397933     -53390.272    
     51800   3034.1381      3748.0524     -13647.096     -38.647537      2.0397933     -53511.488    
     51900   2855.1932     -21392.73      -27420.434     -21266.022      2.0397933     -53397.663    
     52000   2790.3539     -8601.5287     -20659.903     -29137.312      2.0397933     -53305.851    
     52100   3234.699      -10633.578      2243.7513      25459.933      2.0397933     -53480.646    
     52200   3252.8171      20223.663      681.97154      1009.5434      2.0397933     -53438.209    
     52300   3078.1951      208.00949      20095.88       11571.157      2.0397933     -53291.799    
     52400   3054.2399     -16125.306     -43563.574      6727.1171      2.0397933     -53196.222    
     52500   3360.6638     -9792.3303     -26396.64      -836.71659      2.0397933     -53255.391    
     52600   3328.8809     -454.17238     -2420.9966     -3497.842       2.0397933     -53195.103    
     52700   3168.5964     -9513.4177      8655.3435     -15311.376      2.0397933     -53159.084    
     52800   3122.7997      4275.8576      15952.949      17028.234      2.0397933     -53264.221    
     52900   2691.1659     -19885.455     -6211.015      -24814.835      2.0397933     -53130.949    
     53000   2947.6156     -23957.168     -23798.385     -13518.609      2.0397933     -53319.551    
     53100   2802.696      -25743.015     -25164.429     -16876.973      2.0397933     -53249.669    
     53200   2887.3121     -11759.547     -13135.681     -8369.195       2.0397933     -53273.028    
     53300   2969.3035     -2636.9801     -21351.838     -18092.897      2.0397933     -53270.288    
     53400   2910.8485     -35775.762     -7964.7482     -19635.003      2.0397933     -53164.965    
     53500   3196.1238     -29509.713     -18494.667     -19887.646      2.0397933     -53217.871    
     53600   3396.2085      1417.3555      9222.191      -9914.3716      2.0397933     -53220.473    
     53700   3238.0237      15686.22       12994.222      3602.5684      2.0397933     -53082.554    
     53800   3579.2065     -30671.594     -22973.302     -16806.725      2.0397933     -53296.13     
     53900   3032.9363     -24566.691     -17326.542     -24159.084      2.0397933     -53214.329    
     54000   3047.7484     -12319.634     -23079.956     -13983.588      2.0397933     -53374.767    
     54100   2848.6862     -23810.637     -12103.366     -10714.578      2.0397933     -53338.932    
     54200   2921.8734     -6191.346      -7145.5064      28634.378      2.0397933     -53426.414    
     54300   2803.7754     -16527.556     -10687.863     -14916.079      2.0397933     -53387.85     
     54400   2976.0093     -11837.151     -1915.8991     -14617.898      2.0397933     -53485.813    
     54500   2992.0447     -32205.895     -31054.524      4543.8181      2.0397933     -53493.28     
     54600   2846.5619     -19477.606     -11443.755      302.88303      2.0397933     -53402.138    
     54700   2903.7782     -31505.406     -6438.7562     -5709.5842      2.0397933     -53388.281    
     54800   3072.0913     -29354.514     -29013.661     -43624.687      2.0397933     -53414.973    
     54900   3110.2552     -4143.9767      461.00908     -28593.752      2.0397933     -53353.433    
     55000   3056.9182     -20228.224     -11669.591      957.57132      2.0397933     -53251.28     
     55100   3120.1097     -173.16596     -12782.798     -8377.6635      2.0397933     -53250.405    
     55200   3031.4152      11221.441      9616.6344     -10355.128      2.0397933     -53205.854    
     55300   2986.6934     -9253.8938     -22005.179     -27056.752      2.0397933     -53286.484    
     55400   2991.3309     -18674.835     -9906.5711     -19148.866      2.0397933     -53459.457    
     55500   3114.9226     -9911.2889     -14715.86      -17205.934      2.0397933     -53607.75     
     55600   3070.5452     -21698.844      9162.2584     -9213.4325      2.0397933     -53615.875    
     55700   3181.1225     -6167.688       3015.9176      1536.5097      2.0397933     -53697.246    
     55800   2804.8424     -9085.3477     -13871.826     -14524.661      2.0397933     -53512.185    
     55900   2897.6482     -17978.98      -23085.811     -19612.125      2.0397933     -53566.517    
     56000   2656.3026     -4499.8412     -12217.104     -29669.793      2.0397933     -53399.007    
     56100   3383.874      -9038.27       -24951.931     -10362.766      2.0397933     -53706.26     
     56200   3148.9844     -19943.617     -48475.182     -5202.7442      2.0397933     -53447.013    
     56300   2996.9095     -14712.475     -25204.073     -42023.787      2.0397933     -53250.154    
     56400   3236.9198      9490.3722     -10970.606     -12578.812      2.0397933     -53313.714    
     56500   3059.3359     -5406.0855     -17827.488     -18767.923      2.0397933     -53205.943    
     56600   2822.4429     -5713.4604     -619.31622     -21856.002      2.0397933     -53101.469    
     56700   3251.887      -20709.776      4535.3104     -13360.91       2.0397933     -53405.239    
     56800   3136.6284      4363.5884     -1339.8665     -1260.4954      2.0397933     -53456.1      
     56900   3041.7872     -14817.352     -8768.3382     -909.78953      2.0397933     -53519.989    
     57000   2694.9786     -21694.864     -19421.7       -20069.089      2.0397933     -53361.977    
     57100   3139.8287     -4703.7191     -23669.001     -7104.8977      2.0397933     -53603.602    
     57200   2965.8939     -28180.062     -10235.082     -24939.307      2.0397933     -53487.41     
     57300   2902.9481     -30864.776     -25366.525     -9209.3168      2.0397933     -53404.56     
     57400   2962.0812     -25787.857     -7730.0481     -15771.705      2.0397933     -53350.694    
     57500   3073.4512     -30338.22      -22728.387     -18910.082      2.0397933     -53328.447    
     57600   3192.068      -9232.9065     -23843.462     -24472.695      2.0397933     -53340.992    
     57700   3063.4356      12683.43      -1974.1563     -12886.486      2.0397933     -53253.967    
     57800   2972.0888     -15396.253      1662.9553     -15097.495      2.0397933     -53231.764    
     57900   3059.4713     -22414.199     -27181.242     -18103.203      2.0397933     -53393.112    
     58000   2861.1249     -30789.537     -8039.2077     -25800.111      2.0397933     -53460.751    
     58100   2754.2295     -20500.174      3742.6234     -18154.774      2.0397933     -53466.554    
     58200   3023.3361     -18961.7        11788.827     -11170.353      2.0397933     -53610.542    
     58300   3014.8773     -4154.5025     -15885.965     -15702.421      2.0397933     -53580.957    
     58400   2904.1972     -3625.5545     -5824.4642     -12039.262      2.0397933     -53454.062    
     58500   3055.7591     -21332.635     -5086.6746     -8253.2504      2.0397933     -53445.77     
     58600   3005.1642     -14574.668      134.15093     -22280.846      2.0397933     -53360.82     
     58700   2841.4089     -16489.934     -33021.628     -28646.834      2.0397933     -53259.306    
     58800   2773.5256     -27304.994     -37442.541     -2257.6633      2.0397933     -53219.386    
     58900   3197.5013     -10296.297     -130.11111     -16600.455      2.0397933     -53425.966    
     59000   3343.1444     -12161.689     -3390.2679     -3379.8762      2.0397933     -53473.195    
     59100   2836.3566     -30250.231     -25191.096     -20216.028      2.0397933     -53194.37     
     59200   2966.8758     -23280.146     -19810.795     -7601.8347      2.0397933     -53277.11     
     59300   3166.9993     -24313.109     -13589.105     -38474.919      2.0397933     -53399.273    
     59400   3228.5786     -12232.586     -2108.7302     -15504.538      2.0397933     -53497.013    
     59500   2900.2645      7679.0568     -25194.704     -26846.698      2.0397933     -53420.785    
     59600   2862.2541     -25723.37      -20629.148     -14050.42       2.0397933     -53494.936    
     59700   2883.2977      20653.028     -19389.587     -10445.143      2.0397933     -53561.864    
     59800   2826.5016     -29180.562     -22758.162     -13262.82       2.0397933     -53544.934    
     59900   2852.2904     -40526.709     -36248.27      -7503.558       2.0397933     -53530.826    
     60000   2955.8423     -19906.827      10932.271     -13364.495      2.0397933     -53506.465    
     60100   3132.6798     -34883.8       -10763.147     -29019.656      2.0397933     -53467.211    
     60200   3260.0848     -32629.421     -18834.056     -19325.759      2.0397933     -53444.913    
     60300   3170.1925     -18774.213     -21203.98      -18163.196      2.0397933     -53379.998    
     60400   2915.1822     -34707.743     -11522.143      721.6282       2.0397933     -53241.727    
     60500   3084.8368      5525.9994     -21159.694     -28965.873      2.0397933     -53348.719    
     60600   2975.3715     -11868.239     -16275.379     -16789.139      2.0397933     -53333.429    
     60700   3136.1891     -7454.2192     -10286.748     -15724.969      2.0397933     -53474.059    
     60800   3049.1243     -19217.056     -16869.409      6882.4175      2.0397933     -53473.474    
     60900   3132.0863     -15200.383     -17265.243     -15869.204      2.0397933     -53598.864    
     61000   2793.6127     -42437.08      -28772.407     -46135.036      2.0397933     -53532.312    
     61100   2645.0816     -34335.816     -30073.965     -37358.842      2.0397933     -53533.531    
     61200   2697.4992     -23172.387     -28446.386     -24603.308      2.0397933     -53568.908    
     61300   2784.9484     -1820.3613     -16168.011     -4291.6221      2.0397933     -53548.714    
     61400   2826.0282      12467.134      649.51106     -5987.4362      2.0397933     -53450.869    
     61500   3070.1741     -17728.668     -8431.2773     -5926.0188      2.0397933     -53477.545    
     61600   2959.302       11217.782     -9710.6274     -16242.639      2.0397933     -53385.503    
     61700   3229.2817     -7767.214      -4355.7794     -5307.5835      2.0397933     -53528.277    
     61800   3189.723       12882.642     -13188.263     -13937.91       2.0397933     -53513.733    
     61900   2958.4425     -2750.7491     -21945.699     -11331.942      2.0397933     -53411.085    
     62000   2838.8598     -15124.368     -18387.112     -10232.034      2.0397933     -53348.208    
     62100   2899.6567     -22412.505      3227.1913     -8389.423       2.0397933     -53359.742    
     62200   3059.9263      7387.6309     -12482.865     -8108.7059      2.0397933     -53409.124    
     62300   3067.0796     -22939.086     -28838.716     -19042.02       2.0397933     -53358.67     
     62400   3249.5635     -21112.889     -24369.282     -10042.264      2.0397933     -53378.827    
     62500   2987.9275     -13254.832      2418.6077     -28785.576      2.0397933     -53154.701    
     62600   3021.0178      11171.335     -21691.712     -16486.085      2.0397933     -53082.707    
     62700   3287.7146     -6068.8373      1423.0393     -2491.9323      2.0397933     -53144.474    
     62800   3248.4069     -20400.992     -12203.85      -8104.8315      2.0397933     -53091.285    
     62900   3405.1008     -5166.7289     -11512.358     -15322.908      2.0397933     -53238.51     
     63000   3058.9499      3185.5775     -27389.315     -18298.449      2.0397933     -53253.883    
     63100   3198.9647     -2249.9121     -27430.902     -22589.823      2.0397933     -53446.195    
     63200   3126.0016     -24582.748     -1451.2049     -14712.966      2.0397933     -53446.276    
     63300   2925.8483     -10919.251     -14807.245      23666.158      2.0397933     -53373.956    
     63400   3046.7074      6088.3149      18827.097      2292.6302      2.0397933     -53505.049    
     63500   2905.3842     -1774.8802      12624.933      15531.883      2.0397933     -53486.969    
     63600   2770.5718     -3536.0587      14208.851      20949.063      2.0397933     -53453.604    
     63700   2808.2156     -10089.205      4545.1416     -10231.432      2.0397933     -53491.148    
     63800   2949.8134     -12931.555     -19504.773     -15867.849      2.0397933     -53538.113    
     63900   3031.0884      2311.1283     -14226.126      9608.1096      2.0397933     -53485.113    
     64000   2955.3896      22426.483     -14436.264      8618.9245      2.0397933     -53325.958    
     64100   2948.2035      11570.655     -26640.094      3045.0184      2.0397933     -53258.508    
     64200   3047.4729      11865.766      18841.756     -2086.8801      2.0397933     -53291.205    
     64300   3172.2954     -19323.123      2830.8103     -742.66655      2.0397933     -53370.241    
     64400   3007.181      -2601.5372      22612.046     -4899.9942      2.0397933     -53305.817    
     64500   2893.9821     -7491.6598      6981.3587     -1723.299       2.0397933     -53311.682    
     64600   2901.5681     -4550.7936     -12586.624     -12374.286      2.0397933     -53429.704    
     64700   2794.4407     -18135.623     -14520.593     -28139.018      2.0397933     -53458.623    
     64800   2821.2224      535.0621      -16421.841     -7906.1436      2.0397933     -53503.32     
     64900   2877.7453     -28507.058     -27695.738     -32052.042      2.0397933     -53525.9      
     65000   3022.899      -14922.757     -16305.471     -15440.792      2.0397933     -53543.646    
     65100   2789.4858     -9898.9954     -365.61685     -3724.1656      2.0397933     -53312.379    
     65200   3060.667       2970.1548     -15198.852     -10957.981      2.0397933     -53362.866    
     65300   3320.4776     -1052.4505     -9514.497      -15350.791      2.0397933     -53444.42     
     65400   3097.1344     -27724.892     -3546.4098     -8680.5712      2.0397933     -53311.688    
     65500   2860.1531     -19772.762     -27140.588     -1531.7361      2.0397933     -53197.548    
     65600   2853.4334     -16711.065     -29592.041     -11.539335      2.0397933     -53193.846    
     65700   3387.0491      4068.9877      3253.1947      22875.619      2.0397933     -53498.205    
     65800   2971.6484      3319.3306     -9111.5163     -2545.3568      2.0397933     -53318.647    
     65900   2981.4407     -6272.1457     -21012.966     -20557.464      2.0397933     -53352.661    
     66000   2786.6004     -9808.3684     -15007.761     -5797.5346      2.0397933     -53270.116    
     66100   3022.0576     -18440.114     -14566.799     -23540.544      2.0397933     -53416.748    
     66200   2719.2414     -19637.131     -25827.233     -18140.213      2.0397933     -53262.673    
     66300   2787.5505     -6220.7108     -19005.6       -7785.8327      2.0397933     -53299.718    
     66400   3101.2951      10845.825     -5886.929      -22178.285      2.0397933     -53460.433    
     66500   2839.9668     -9294.3265     -24899.744     -13044.978      2.0397933     -53284.999    
     66600   3223.6542     -17575.051     -17786.626     -14320.867      2.0397933     -53366.069    
     66700   3224.1207     -21074.265     -40034.6       -2984.5999      2.0397933     -53231.591    
     66800   3246.1662     -19392.642     -27323.973     -32110.867      2.0397933     -53188.253    
     66900   3323.026       22365.335     -12748.999     -8069.0674      2.0397933     -53260.504    
     67000   3290.1084     -6221.779      -6134.3741     -15296.803      2.0397933     -53362.614    
     67100   3068.4746     -18788.375     -16693.283     -22114.817      2.0397933     -53369.166    
     67200   2885.2966     -17310.771     -26748.876     -30736.207      2.0397933     -53327.618    
     67300   2673.3346      8677.6212     -15868.95      -3368.2509      2.0397933     -53231.457    
     67400   2910.0253      11480.2       -28871.856     -15260.213      2.0397933     -53347.635    
     67500   2983.53        3380.9851      10193.855      4452.0454      2.0397933     -53386.194    
     67600   3054.218      -1800.0319     -5845.9514      5393.8522      2.0397933     -53452.285    
     67700   2917.5849     -9599.9184     -6065.2244     -13953.354      2.0397933     -53423.526    
     67800   2696.8733     -13534.249      2443.9056      3966.4399      2.0397933     -53380.911    
     67900   2838.4015     -9320.7952     -13266.246     -223.20303      2.0397933     -53518.893    
     68000   2884.0627      1364.3475     -15569.94      -20582.341      2.0397933     -53584.241    
     68100   2831.3663     -8209.9684     -11888.174      13112.868      2.0397933     -53571.602    
     68200   2824.835      -15405.215     -6013.6244     -17279.791      2.0397933     -53527.446    
     68300   2755.0103     -8265.0863     -19171.286     -49596.991      2.0397933     -53341.975    
     68400   2987.3702     -3392.73       -701.29399     -24964.996      2.0397933     -53335.096    
     68500   3034.435      -9445.7828     -10849.904     -18900.272      2.0397933     -53300.938    
     68600   2937.7646     -8067.7307      1459.4741     -12861.226      2.0397933     -53231.453    
     68700   3087.2583     -27128.845     -18296.812     -33617.197      2.0397933     -53298.864    
     68800   3182.3812     -1712.8391     -12149.992      3426.0502      2.0397933     -53353.813    
     68900   3248.1213     -27755.576      5684.2612     -11319.14       2.0397933     -53464.314    
     69000   2853.8234     -19072.111     -18641.539     -23051.738      2.0397933     -53358.261    
     69100   2893.7303     -14093.201     -2891.1427     -27787.979      2.0397933     -53468.703    
     69200   2692.4178     -17160.184     -23202.928     -13569.151      2.0397933     -53401.06     
     69300   2786.2485     -7557.7399     -13800.501     -3269.1052      2.0397933     -53450.468    
     69400   3012.1957     -14054.718      563.54195     -13722.32       2.0397933     -53533.33     
     69500   2902.0448      4277.1644     -1858.5024     -6724.1931      2.0397933     -53408.884    
     69600   2750.2069     -2325.963       13682.031     -1489.8708      2.0397933     -53250.805    
     69700   2953.4088     -30084.031     -2865.3137     -16332.782      2.0397933     -53304.124    
     69800   2973.9174     -37790.736     -9389.6138     -14760.728      2.0397933     -53281.811    
     69900   3195.3392      17814.967     -8368.6647     -9016.9691      2.0397933     -53373.559    
     70000   2912.3538     -8718.6526     -19618.862     -22605.187      2.0397933     -53224.705    
     70100   3061.9346     -14137.068      3451.9389     -17257.84       2.0397933     -53336.657    
     70200   3159.8658     -25969.081     -11080.296     -9025.8464      2.0397933     -53455.78     
     70300   3054.9216     -20009.504      12097.4       -11818.615      2.0397933     -53520.25     
     70400   3001.0334     -12309.614     -20941.215     -27886.531      2.0397933     -53586.61     
     70500   2939.4232      2507.9206     -1810.9778      6077.5562      2.0397933     -53591.313    
     70600   2678.6515     -8309.4545     -8670.4512     -25178.917      2.0397933     -53454.226    
     70700   2854.0538     -21068.242      4603.1592     -23104.218      2.0397933     -53519.142    
     70800   2998.6662     -17017.87      -6226.2448     -22373.876      2.0397933     -53551.725    
     70900   3160.3516     -15001.5       -5531.4466     -32198.659      2.0397933     -53613.578    
     71000   2975.5206     -4021.4345     -21681.291     -14446.232      2.0397933     -53512.819    
     71100   3088.7277      11448.023     -4630.2753     -10278.569      2.0397933     -53596.483    
     71200   3123.7148     -6945.4927      8749.4281      4209.825       2.0397933     -53650.303    
     71300   3167.1158     -7789.3605      958.72587     -24130.667      2.0397933     -53703.794    
     71400   2772.5077      19065.54      -12630.921     -4793.4571      2.0397933     -53507.163    
     71500   2937.5409     -13596.148     -25417.626     -25300.648      2.0397933     -53597.523    
     71600   2893.5593     -34241.164     -4940.9152     -35072.465      2.0397933     -53558.326    
     71700   2809.7981     -14442.011     -4444.4478     -6324.2395      2.0397933     -53477.263    
     71800   3072.7074     -2201.2953     -11164.204      1862.4522      2.0397933     -53555.733    
     71900   2990.0777     -13279.657     -24703.146     -25350.841      2.0397933     -53413.348    
     72000   3209.5412     -14224.73      -41289.158     -27777.102      2.0397933     -53441.593    
     72100   3229.985      -11662.851      998.21521     -8331.2435      2.0397933     -53419.465    
     72200   3215.244      -28678.395      1216.964      -2174.1234      2.0397933     -53410.823    
     72300   2933.0688     -25249.581     -11866.239     -35645.103      2.0397933     -53274.397    
     72400   2942.0344     -1535.827      -19812.993     -13135.142      2.0397933     -53302.243    
     72500   2967.732       5592.6351     -70.932817     -27339.038      2.0397933     -53309.843    
     72600   2808.2647     -131.91951     -21830.185     -22049.271      2.0397933     -53224.687    
     72700   3031.7278     -12732.367     -12604.332     -37611.774      2.0397933     -53337.019    
     72800   3099.3559     -12193.394     -22517.045     -24337.693      2.0397933     -53346.57     
     72900   3083.469       2758.7309     -460.3969      -16299.191      2.0397933     -53273.941    
     73000   3133.159       9965.5084      3579.3633     -42976.452      2.0397933     -53198.2      
     73100   3272.5388     -6576.2804      627.81346     -20251.061      2.0397933     -53180.014    
     73200   3087.8799      15528.995     -20407.587     -4842.8496      2.0397933     -53056.093    
     73300   3388.7605     -4923.8153     -3820.0471      5935.3205      2.0397933     -53268.762    
     73400   3228.2307     -24944.123     -13883.105     -13646.839      2.0397933     -53300.292    
     73500   3160.5607     -20188.935     -14640.003     -10503.525      2.0397933     -53387.661    
     73600   2803.3669     -25310.024     -29561.52      -31077.695      2.0397933     -53257.424    
     73700   3078.9756     -20003.913      324.96846     -33452.838      2.0397933     -53420.577    
     73800   3119.3203      2321.6715     -1145.7593     -20115.602      2.0397933     -53448.57     
     73900   2668.8287     -21946.101     -10307.608      14346.154      2.0397933     -53216.15     
     74000   3002.1078      2203.1041     -14689.93      -16539.671      2.0397933     -53401.024    
     74100   3061.1029     -9105.5226     -26475.959     -20195.197      2.0397933     -53395.052    
     74200   2691.9595     -21537.296     -19595.33      -36439.756      2.0397933     -53107.68     
     74300   3168.7142      612.55023     -3764.7883     -32691.659      2.0397933     -53199.467    
     74400   3366.6837     -9877.8618     -4740.6055     -12588.684      2.0397933     -53244.009    
     74500   3044.4562     -5058.8177      1301.4702     -36536.65       2.0397933     -53101.567    
     74600   2750.2949     -16052.79      -20267.64      -22244.868      2.0397933     -53001.601    
     74700   3001.3545      3419.4116     -5118.0456     -16198.004      2.0397933     -53186.677    
     74800   3176.4478     -15779.662     -4303.6744     -44713.167      2.0397933     -53349.188    
     74900   3195.5783     -254.95081      5100.3774     -13602.275      2.0397933     -53473.479    
     75000   3003.9912     -2778.0559     -27278.304     -26516.496      2.0397933     -53473.268    
     75100   3213.0602      7861.2028     -4705.7042      4417.0677      2.0397933     -53610.415    
     75200   2789.1761     -10920.401     -11629.024     -8951.9839      2.0397933     -53363.972    
     75300   2888.5909     -17688.131     -537.26047     -42564.813      2.0397933     -53393.51     
     75400   2974.6754     -13945.595      12247.869     -21937.924      2.0397933     -53387.98     
     75500   3306.0044      5036.2893      610.29862     -37502.069      2.0397933     -53488.167    
     75600   3014.2435     -19035.86      -27628.609     -18529.758      2.0397933     -53251.524    
     75700   3016.9703     -21130.497     -45719.964     -29531.441      2.0397933     -53202.581    
     75800   3160.6818      9004.6861     -20536.364     -15558.194      2.0397933     -53244.762    
     75900   3104.5726     -29925.356     -11275.634     -35352.726      2.0397933     -53229.099    
[...]
    182300   2780.4716     -4547.2371      11598.096     -6595.5295      2.0397933     -53357.269    
    182400   2730.4489     -3796.5764     -1613.613      -10949.619      2.0397933     -53440.606    
    182500   2931.6083     -4616.3768      2598.8617     -2793.4186      2.0397933     -53620.471    
    182600   3060.2855      5384.923       14446.913     -6860.8778      2.0397933     -53704.858    
    182700   2739.9754     -9267.8078      1495.8744      81.466525      2.0397933     -53496.318    
    182800   2915.1887     -13519.636     -7030.3151     -24438.007      2.0397933     -53503.107    
    182900   3118.8586     -6980.3809     -2783.4898     -5769.1039      2.0397933     -53446.882    
    183000   3083.1566     -11498.044     -15519.954     -5146.2973      2.0397933     -53307.389    
    183100   3173.2509     -20009.073      8412.7114     -3009.3994      2.0397933     -53333.705    
    183200   3173.699      -5842.4104      8057.2575     -10352.253      2.0397933     -53331.899    
    183300   2983.3779     -855.34405     -27299.348      17537.398      2.0397933     -53280.315    
    183400   3015.9809     -252.06498      3438.7654      17891.793      2.0397933     -53383.336    
    183500   2943.5878     -7373.2166      6572.8132     -12684.538      2.0397933     -53434.866    
    183600   3088.6476      13227.128     -14670.271     -12354.112      2.0397933     -53598.872    
    183700   2972.1064     -13782.103     -5333.5771      344.52791      2.0397933     -53606.967    
    183800   2736.5411      3576.5445      481.20851      9289.3482      2.0397933     -53513.708    
    183900   2856.8333     -7801.3138     -36581.031     -14413.739      2.0397933     -53571.533    
    184000   2872.9674     -15228.177     -5472.4857      9955.775       2.0397933     -53516.173    
    184100   3029.9934     -12094.693     -11284.801      11042.761      2.0397933     -53473.184    
    184200   3206.7647      12046.524     -8837.9347     -9107.4305      2.0397933     -53469.992    
    184300   2996.8718     -13830.659     -22451.352     -22564.687      2.0397933     -53341.095    
    184400   3057.8025      2061.3059     -22387.328     -9289.3129      2.0397933     -53405.172    
    184500   3262.2089     -10870.554     -19590.913     -5267.8786      2.0397933     -53566.988    
    184600   3020.7068     -32450.98      -19113.97      -14172.19       2.0397933     -53512.781    
    184700   2879.3112     -20807.484     -24459.831     -12377.052      2.0397933     -53499.89     
    184800   2702.1378      3083.945       12901.873     -15160.051      2.0397933     -53435.954    
    184900   2985.2056     -17408.36      -12849.122     -5461.4322      2.0397933     -53580.127    
    185000   2936.0171      3147.7669      5659.8839      21525.677      2.0397933     -53528.34     
    185100   3035.9428     -17670.886     -15870.219     -18616.826      2.0397933     -53554.489    
    185200   3127.0633      6110.0246     -6290.6239     -21358.773      2.0397933     -53519.358    
    185300   3079.5189     -17504.461     -12379.076     -24881.808      2.0397933     -53390.795    
    185400   3402.3931      5827.4148     -5524.2798      4857.9125      2.0397933     -53499.372    
    185500   3216.5831     -8250.3174     -1470.8956     -17164.594      2.0397933     -53399.426    
    185600   3274.0811     -25925.47      -19428.978     -22292.16       2.0397933     -53505.872    
    185700   3161.4965     -8272.8033     -7315.7026     -19555.363      2.0397933     -53549.094    
    185800   2966.5326     -6895.8318     -6913.3745     -10959.701      2.0397933     -53523.33     
    185900   2745.4124     -21525.178     -12913.904     -10197.909      2.0397933     -53435.486    
    186000   3092.8566      11068.291     -6435.6642     -1657.5784      2.0397933     -53633.128    
    186100   2887.6608      17652.553     -9364.3068      4072.5178      2.0397933     -53517.608    
    186200   3122.185      -11107.053     -15156.433      2831.2865      2.0397933     -53633.099    
    186300   2745.2166     -20078.292     -412.96241      9439.0913      2.0397933     -53418.787    
    186400   3126.0056     -8754.2555     -3522.0398      12700.756      2.0397933     -53605.799    
    186500   3115.0616     -25930.961      1190.5769     -17572.618      2.0397933     -53576.948    
    186600   3141.4047      2874.0871      5446.2651     -6542.0855      2.0397933     -53591.012    
    186700   3050.8814     -6080.1474      757.79233      470.93488      2.0397933     -53561.789    
    186800   3095.4081      8264.4258      2730.4527     -3881.5619      2.0397933     -53622.907    
    186900   3008.8668     -10296.634     -13410.497      1839.7996      2.0397933     -53658.038    
    187000   2955.0245     -21020.866     -14140.566      2016.456       2.0397933     -53718.467    
    187100   2776.7022     -4404.4722     -2024.3888      6452.3297      2.0397933     -53721.385    
    187200   2589.4099     -19672.902     -9396.7611     -35632.024      2.0397933     -53735.237    
    187300   2552.6019     -3422.4519     -17858.423     -3087.389       2.0397933     -53787.528    
    187400   2633.8377     -5657.1788     -22126.086     -15825.316      2.0397933     -53838.172    
    187500   2905.1107     -15365.058     -11503.718      10443.775      2.0397933     -53864.777    
    187600   3160.9825     -24906.986     -21614.226     -9438.5568      2.0397933     -53847.596    
    187700   2905.6404     -14065.034     -2235.6563     -8630.7846      2.0397933     -53609.641    
    187800   3047.7932     -9499.5722     -19704.977     -18609.089      2.0397933     -53595.78     
    187900   3014.7194      5088.9885      11690.528     -18810.027      2.0397933     -53495.527    
    188000   2968.8629     -23960.699     -23547.449      9832.3374      2.0397933     -53429.517    
    188100   3023.3356     -14741.353     -27069.573     -48284.126      2.0397933     -53432.213    
    188200   3118.8442     -17757.115     -22114.26      -22290.335      2.0397933     -53451.726    
    188300   3135.2332     -7523.9229     -11373.05      -5045.7182      2.0397933     -53435.279    
    188400   3056.3351     -14904.441     -3526.1906      7227.2082      2.0397933     -53427.334    
    188500   3019.8667     -31906.694     -22488.289     -24653.75       2.0397933     -53496.597    
    188600   2806.94       -18005.817     -21158.494      12831.747      2.0397933     -53477.726    
    188700   2878.6456     -21813.85       2209.9215     -6380.6772      2.0397933     -53577.042    
    188800   2817.4424      14332.127     -9780.0815      10241.1        2.0397933     -53569.806    
    188900   2790.1626      2091.9273     -5552.947       3233.5401      2.0397933     -53557.497    
    189000   2919.6133      19355.492      15009.261     -7936.3482      2.0397933     -53600.982    
    189100   3014.8157     -2225.5934      2250.21       -5783.1622      2.0397933     -53578.557    
    189200   2984.6854     -8534.5591     -13740.441     -24135.992      2.0397933     -53455.656    
    189300   3331.844      -4594.5978     -16564.808     -26284.37       2.0397933     -53559.169    
    189400   2910.8728     -20309.841     -33279.595     -17991.814      2.0397933     -53284.739    
    189500   3237.081      -13954.498      5370.9611     -12387.694      2.0397933     -53438.201    
    189600   2842.1619      7887.087      -5108.8689     -17598.771      2.0397933     -53238.316    
    189700   3070.2141     -16496.497     -2933.2008     -21788.695      2.0397933     -53459.025    
    189800   3042.4946     -12939.077     -8160.1199     -6485.231       2.0397933     -53595.988    
    189900   2979.5396     -23063.761     -11584.001     -8063.9186      2.0397933     -53653.98     
    190000   2815.4577      1235.3619     -27734.543     -18428.404      2.0397933     -53590.405    
    190100   2726.2006     -19061.774     -16978.912      16201.716      2.0397933     -53526.565    
    190200   3078.7526     -20984.577     -22655.7       -14322.953      2.0397933     -53665.055    
    190300   3188.3048     -12319.365     -4455.7788     -17664.688      2.0397933     -53656.86     
    190400   3030.1748      13801.706      614.06496     -11271.944      2.0397933     -53516.097    
    190500   2854.3722     -11139.391     -2205.8746     -36950.843      2.0397933     -53379.053    
    190600   2979.8628     -2813.2096     -11150.576     -18115.766      2.0397933     -53407.835    
    190700   3255.6115     -3553.9582      9506.1859     -2441.154       2.0397933     -53508.447    
    190800   3234.8111     -569.0255      -7971.0389      3070.8011      2.0397933     -53378.753    
    190900   3342.9897     -3645.8559      16234.154     -18451.742      2.0397933     -53265.09     
    191000   3511.1932     -22700.022     -15991.108     -23627.214      2.0397933     -53280.736    
    191100   3106.7271     -9465.1919     -9039.7767     -11124.432      2.0397933     -53121.139    
    191200   3260.0924     -18661.845      8167.8582     -16876.77       2.0397933     -53329.026    
    191300   3131.733      -11916.191     -11050.045     -20470.799      2.0397933     -53364.777    
    191400   2849.3614     -23047.04      -25953.696     -13480.65       2.0397933     -53257.032    
    191500   3198.4773     -30241.496     -6167.9674     -7936.9377      2.0397933     -53454.139    
    191600   2784.4443     -19052.093     -28802.324     -21989.156      2.0397933     -53223.436    
    191700   3065.8755     -10443.696     -20550.141      5199.4182      2.0397933     -53382.199    
    191800   2877.3051     -17749.096     -8430.5049     -6944.8954      2.0397933     -53315.068    
    191900   2892.9144     -9512.8835      991.54824     -8499.3007      2.0397933     -53392.02     
    192000   2650.5227     -73.989525     -17475.215     -25530.185      2.0397933     -53371.049    
    192100   2789.8911     -11777.09      -16648.754     -23655.927      2.0397933     -53510.031    
    192200   3010.1266     -8663.2878      3111.8139     -3346.4458      2.0397933     -53632.931    
    192300   3023.4629      20041.199     -8222.5276     -13181.442      2.0397933     -53595.477    
    192400   2872.6776     -17529.891     -8555.3611     -12755.982      2.0397933     -53382.764    
    192500   3286.833      -6569.7397      8580.2231      354.83659      2.0397933     -53442.855    
    192600   3091.555      -2399.7043      782.24061     -13799.51       2.0397933     -53295.814    
    192700   3359.8393     -32864.355     -10755.545     -24411.463      2.0397933     -53472.689    
    192800   3142.1693     -19499.444     -31375.361     -39792.44       2.0397933     -53417.269    
    192900   2794.3009     -32944.612     -6406.5831     -26604.453      2.0397933     -53301.721    
    193000   2906.4384     -12435         -8992.1558     -12628.301      2.0397933     -53416.955    
    193100   2791.1807     -16855.848     -17596.79      -25435.026      2.0397933     -53380.793    
    193200   3039.7889     -20807.858      4767.6964     -13024.703      2.0397933     -53518.77     
    193300   2890.6766     -8799.7101     -19134.144     -35782.985      2.0397933     -53442.665    
    193400   3044.238      -6504.3149      10224.548     -116.02226      2.0397933     -53527.707    
    193500   2940.4454     -2199.2821     -9037.8768      1612.0821      2.0397933     -53469.88     
    193600   2986.4572     -30688.745     -4662.8006     -26201.43       2.0397933     -53483.109    
    193700   3031.9888     -13674.171      20102.662     -27946.07       2.0397933     -53466.289    
    193800   3208.704      -27213.978     -7348.6222     -31055.086      2.0397933     -53530.277    
    193900   3035.0193     -27176.509     -11440.606     -22683.887      2.0397933     -53421.754    
    194000   2868.9775     -12073.014     -3196.0261     -1051.4311      2.0397933     -53308.469    
    194100   3020.204      -32692.22      -21412.94      -14289.757      2.0397933     -53371.587    
    194200   3265.9393     -7666.6171      14331.173      4370.0779      2.0397933     -53472.403    
    194300   3265.6432     -697.46227      3557.5786     -5156.0865      2.0397933     -53448.606    
    194400   3234.4326     -15659.286     -9521.1096     -686.50158      2.0397933     -53474.661    
    194500   2971.7554     -12711.177     -332.27492     -1234.4262      2.0397933     -53456.2      
    194600   2772.0954      4399.9922     -7598.2807     -10854.926      2.0397933     -53460.233    
    194700   2988.0792     -9581.6866     -10892.835     -11296.773      2.0397933     -53617.926    
    194800   2716.4547     -27473.55       7787.6545     -19851.114      2.0397933     -53473.676    
    194900   3087.0358     -11608.866     -16076.476     -41810.041      2.0397933     -53639.89     
    195000   3022.1559     -15155.296     -18001.521     -32004.283      2.0397933     -53538.391    
    195100   2978.0741     -9887.8067     -982.1702      -16280.875      2.0397933     -53447.902    
    195200   3087.3926     -23186.298      5640.2816     -2216.087       2.0397933     -53440.634    
    195300   3370.8632      9140.4983     -7409.0974     -15328.459      2.0397933     -53457.733    
    195400   3207.0955     -18525.758     -22165.006     -29161.105      2.0397933     -53221.264    
    195500   3326.5555     -6559.444      -19146.87      -36037.214      2.0397933     -53243.604    
    195600   3342.8167     -20094.415     -12824.217     -14618.347      2.0397933     -53301.326    
    195700   3082.851      -22173.877      6423.3078     -29102.355      2.0397933     -53245.319    
    195800   3078.1363     -17023.07      -13398.718     -4927.7754      2.0397933     -53307.949    
    195900   3040.4834     -15986.863     -29672.711     -14125.92       2.0397933     -53330.99     
    196000   2767.2084     -37412.587     -23998.949     -38136.707      2.0397933     -53220.776    
    196100   2699.5315     -15586.49      -4416.4526     -11016.152      2.0397933     -53216.427    
    196200   2921.0761     -10448.542     -14466.302     -41400.818      2.0397933     -53355.653    
    196300   3018.0192     -15989.177     -2023.487      -14354.27       2.0397933     -53414.874    
    196400   3101.6204     -25661.866     -15113.739     -19521.149      2.0397933     -53493.728    
    196500   3011.7145     -48216.694     -7869.3898     -15247.84       2.0397933     -53517.018    
    196600   2884.1347     -25844.644     -22046.739     -22935.658      2.0397933     -53543.199    
    196700   2819.973      -6785.8824      224.12674     -19236.919      2.0397933     -53590.003    
    196800   2688.7841     -23840.666     -24256.878     -20923.785      2.0397933     -53573.615    
    196900   2882.5306     -13936.465     -2079.0808     -13848.52       2.0397933     -53672.229    
    197000   2995.2643     -17821.069     -27960.155     -22232.166      2.0397933     -53650.137    
    197100   2972.4808      8131.8066     -11878.274     -3513.3556      2.0397933     -53488.814    
    197200   3068.5883     -1530.9696      8958.5315      28143.708      2.0397933     -53459.238    
    197300   3190.8644      6878.247       1760.2638     -1932.797       2.0397933     -53527.236    
    197400   3275.4479      13765.53      -5582.6134     -7809.9411      2.0397933     -53629.658    
    197500   2653.6202     -5108.8018     -10436.224     -23151.517      2.0397933     -53364.695    
    197600   3049.3148      2544.4954     -102.65394     -34809.143      2.0397933     -53602.94     
    197700   2969.0085     -17961.652     -8798.8981     -24984.093      2.0397933     -53572.196    
    197800   2657.5604     -18380.35      -22846.513     -29869.948      2.0397933     -53414.702    
    197900   2767.0249     -20269.07      -6151.2741     -37314.746      2.0397933     -53466.05     
    198000   3159.7666     -12365.8        13514.287     -18465.643      2.0397933     -53578.611    
    198100   3097.7767     -19567.14      -5216.0694     -12920.904      2.0397933     -53386.944    
    198200   3186.4904     -21970.505     -7217.0942     -23514.003      2.0397933     -53347.041    
    198300   3120.8149     -31327.905      2849.8879     -5703.9963      2.0397933     -53302.285    
    198400   3267.6943     -8546.604      -6252.2063     -394.80618      2.0397933     -53425.449    
    198500   3211.5538     -29608.197     -6735.3881     -13562.675      2.0397933     -53480.494    
    198600   2966.1701     -4400.3062      7191.2924     -6676.473       2.0397933     -53414.754    
    198700   2879.964      -13346.047      15181.858     -5164.0326      2.0397933     -53428.635    
    198800   3118.7643     -11976.908     -4180.6799     -13403.678      2.0397933     -53585.301    
    198900   3012.0586     -33472.109     -15425.756     -12799.208      2.0397933     -53546.264    
    199000   3142.4476     -14509.187     -15877.867     -6874.7004      2.0397933     -53620.486    
    199100   3080.1329     -27579.986      4319.5329     -29961.697      2.0397933     -53600.531    
    199200   3100.8706     -5923.0409      2724.066      -8037.7729      2.0397933     -53620.646    
    199300   3157.3696     -13433.957     -9791.051      -1525.1322      2.0397933     -53641.579    
    199400   3270.3241     -2969.2382     -2967.5239     -13308.913      2.0397933     -53673.884    
    199500   2707.5133      15698.364     -17287.897      4588.6914      2.0397933     -53303.087    
    199600   3204.9604     -18698.275     -10118.675     -27536.303      2.0397933     -53446.702    
    199700   3101.1071     -11800.389      20477.644      4105.1854      2.0397933     -53283.35     
    199800   3326.1829     -13853.832     -1229.1811     -13804.017      2.0397933     -53392.163    
    199900   3117.3109      1914.9246     -5873.1895     -9881.3717      2.0397933     -53353.283    
    200000   3064.7279     -20167.333     -4759.9965     -2007.9261      2.0397933     -53422.903    
Loop time of 177.035 on 1 procs for 200000 steps with 189 atoms

Performance: 48.804 ns/day, 0.492 hours/ns, 1129.721 timesteps/s, 213.517 katom-step/s
99.9% CPU use with 1 MPI tasks x no OpenMP threads

MPI task timing breakdown:
Section |  min time  |  avg time  |  max time  |%varavg| %total
---------------------------------------------------------------
Pair    | 99.145     | 99.145     | 99.145     |   0.0 | 56.00
Kspace  | 64.93      | 64.93      | 64.93      |   0.0 | 36.68
Neigh   | 10.615     | 10.615     | 10.615     |   0.0 |  6.00
Comm    | 1.5706     | 1.5706     | 1.5706     |   0.0 |  0.89
Output  | 0.036574   | 0.036574   | 0.036574   |   0.0 |  0.02
Modify  | 0.48908    | 0.48908    | 0.48908    |   0.0 |  0.28
Other   |            | 0.2489     |            |       |  0.14

Nlocal:            189 ave         189 max         189 min
Histogram: 1 0 0 0 0 0 0 0 0 0
Nghost:           1873 ave        1873 max        1873 min
Histogram: 1 0 0 0 0 0 0 0 0 0
Neighs:          20171 ave       20171 max       20171 min
Histogram: 1 0 0 0 0 0 0 0 0 0

Total # of neighbors = 20171
Ave neighs/atom = 106.72487
Neighbor list builds = 27755
Dangerous builds = 0

#      minimize          1.0e-6 1.0e-3 1000 1000000

write_data        ${runString}.data nocoeff
write_data        hot_nvt.data nocoeff
System init for write_data ...
Ewald initialization ...
  using 12-bit tables for long-range coulomb
  G vector (1/distance) = 0.28450507
  estimated absolute RMS force accuracy = 0.033213181
  estimated relative force accuracy = 0.00010002051
  KSpace vectors: actual max1d max3d = 257 5 665
                  kxmax kymax kzmax  = 5 5 5
Generated 0 of 1 mixed pair_coeff terms from geometric mixing rule
Total wall time: 0:02:57
