hi

189 atoms
2 atom types

0.0 16.0 xlo xhi
0.0 16.0 ylo yhi
0.0 16.0 zlo zhi

Masses

1 15.999
2 47.867

Atoms

	1 2 2.196 2.509 15.768 3.071
	2 2 2.196 7.28 3.321 5.764
	3 2 2.196 4.958 9.253 7.146
	4 2 2.196 13.342 3.427 6.584
	5 2 2.196 8.855 8.568 7.537
	6 2 2.196 10.475 6.911 4.916
	7 2 2.196 3.723 3.158 7.906
	8 2 2.196 11.421 5.524 8.632
	9 2 2.196 13.315 4.318 4.253
	10 2 2.196 5.743 13.228 15.641
	11 2 2.196 13.519 10.507 14.097
	12 2 2.196 3.443 7.284 5.493
	13 2 2.196 6.708 9.484 5.813
	14 2 2.196 10.19 6.283 13.39
	15 2 2.196 12.66 10.579 7.315
	16 2 2.196 8.179 2.023 3.921
	17 2 2.196 3.013 10.559 9.925
	18 2 2.196 6.369 9.907 14.736
	19 2 2.196 8.212 15.376 9.295
	20 2 2.196 13.812 1.998 9.928
	21 2 2.196 6.868 8.867 8.457
	22 2 2.196 5.102 9.925 9.248
	23 2 2.196 11.707 10.904 12.815
	24 2 2.196 2.907 14.506 15.163
	25 2 2.196 9.55 4.958 5.611
	26 2 2.196 9.149 5.775 2.997
	27 2 2.196 11.904 3.51 13.865
	28 2 2.196 7.227 5.278 6.893
	29 2 2.196 8.852 15.153 15.779
	30 2 2.196 9.265 15.655 4.215
	31 2 2.196 6.139 12.271 12.867
	32 2 2.196 15.77 12.028 14.043
	33 2 2.196 15.466 8.286 10.417
	34 2 2.196 12.976 7.07 15.782
	35 2 2.196 5.596 14.897 9.338
	36 2 2.196 11.02 8.281 7.102
	37 2 2.196 5.082 15.068 11.523
	38 2 2.196 9.928 14.076 11.461
	39 2 2.196 2.514 6.302 12.033
	40 2 2.196 14.055 13.763 12.049
	41 2 2.196 2.692 9.37 4.968
	42 2 2.196 14.186 7.256 3.103
	43 2 2.196 5.625 3.853 4.237
	44 2 2.196 15.774 15.77 12.558
	45 2 2.196 8.982 4.315 9.538
	46 2 2.196 12.973 15.758 15.039
	47 2 2.196 7.536 12.987 9.689
	48 2 2.196 11.684 1.991 6.425
	49 2 2.196 12.141 15.061 7.037
	50 2 2.196 4.617 9.008 1.998
	51 2 2.196 7.075 4.63 11.086
	52 2 2.196 15.768 9.275 2.934
	53 2 2.196 15.575 9.163 14.763
	54 2 2.196 4.313 6.686 2.172
	55 2 2.196 2.186 6.552 9.752
	56 2 2.196 5.501 15.798 14.061
	57 2 2.196 14.539 12.389 4.323
	58 2 2.196 14.604 4.963 12.545
	59 2 2.196 6.836 15.77 6.227
	60 2 2.196 4.103 14.421 4.985
	61 2 2.196 4.288 6.619 15.039
	62 2 2.196 1.995 3.401 3.005
	63 2 2.196 8.423 15.772 13.064
	64 1 -1.098 15.46 7.337 13.532
	65 1 -1.098 2.049 5.272 7.794
	66 1 -1.098 8.574 14.181 7.261
	67 1 -1.098 10.236 10.946 10.277
	68 1 -1.098 12.903 15.108 3.058
	69 1 -1.098 2.739 4.275 10.332
	70 1 -1.098 5.245 3.376 9.609
	71 1 -1.098 11.998 12.174 11.045
	72 1 -1.098 11.787 14.121 9.685
	73 1 -1.098 10.294 11.565 14.397
	74 1 -1.098 9.521 2.516 5.754
	75 1 -1.098 15.766 6.206 7.764
	76 1 -1.098 2.311 10.667 6.943
	77 1 -1.098 2.621 11.915 4.44
	78 1 -1.098 8.038 11.188 6.716
	79 1 -1.098 5.797 1.984 7.998
	80 1 -1.098 7.366 11.608 3.839
	81 1 -1.098 7.068 14.129 11.505
	82 1 -1.098 7.951 2.449 7.69
	83 1 -1.098 10.729 8.834 12.539
	84 1 -1.098 9.922 15.78 6.58
	85 1 -1.098 8.243 7.306 10.082
	86 1 -1.098 9.851 11.903 12.216
	87 1 -1.098 15.783 4.381 6.42
	88 1 -1.098 12.606 10.046 9.821
	89 1 -1.098 15.029 11.386 7.753
	90 1 -1.098 15.781 10.095 6.14
	91 1 -1.098 7.07 15.413 4.069
	92 1 -1.098 11.033 15.009 15.779
	93 1 -1.098 2.543 3.555 12.849
	94 1 -1.098 2.612 15.522 8.956
	95 1 -1.098 12.372 11.721 4.157
	96 1 -1.098 6.326 11.592 8.493
	97 1 -1.098 13.035 4.243 9.459
	98 1 -1.098 15.772 13.852 10.68
	99 1 -1.098 7.629 4.106 3.198
	100 1 -1.098 11.309 9.572 14.898
	101 1 -1.098 4.981 9.023 12.334
	102 1 -1.098 12.254 5.871 14.085
	103 1 -1.098 10.647 15.775 12.655
	104 1 -1.098 15.724 2.07 6.068
	105 1 -1.098 3.59 12.089 15.811
	106 1 -1.098 9.087 9.08 13.999
	107 1 -1.098 12.306 7.639 9.716
	108 1 -1.098 11.198 5.002 4.048
	109 1 -1.098 10.073 5.831 10.827
	110 1 -1.098 2.822 8.02 3.219
	111 1 -1.098 6.474 6.175 9.082
	112 1 -1.098 4.181 5.885 7.208
	113 1 -1.098 8.117 10.904 15.771
	114 1 -1.098 15.488 4.958 9.576
	115 1 -1.098 6.266 7.51 13.514
	116 1 -1.098 8.396 7.035 14.485
	117 1 -1.098 13.705 6.783 8.254
	118 1 -1.098 11.804 15.752 4.908
	119 1 -1.098 1.995 9.651 1.996
	120 1 -1.098 9.724 13.348 9.154
	121 1 -1.098 10.137 7.791 15.772
	122 1 -1.098 6.113 7.325 6.748
	123 1 -1.098 4.469 13.446 3.03
	124 1 -1.098 10.1 2.451 10.773
	125 1 -1.098 6.562 7.565 2.317
	126 1 -1.098 8.258 11.318 13.615
	127 1 -1.098 1.993 8.658 10.355
	128 1 -1.098 14.465 5.736 14.865
	129 1 -1.098 7.685 7.625 5.001
	130 1 -1.098 10.163 8.475 10.425
	131 1 -1.098 1.998 12.972 8.456
	132 1 -1.098 5.479 2.0 2.996
	133 1 -1.098 10.227 12.56 6.637
	134 1 -1.098 8.877 3.334 15.025
	135 1 -1.098 5.307 5.991 5.136
	136 1 -1.098 4.803 11.611 4.511
	137 1 -1.098 4.538 11.249 14.014
	138 1 -1.098 3.928 11.523 11.677
	139 1 -1.098 7.348 13.675 5.416
	140 1 -1.098 8.526 12.93 2.383
	141 1 -1.098 11.617 4.277 11.141
	142 1 -1.098 1.935 13.821 12.886
	143 1 -1.098 14.004 12.529 9.369
	144 1 -1.098 4.317 15.258 7.123
	145 1 -1.098 15.647 7.881 5.956
	146 1 -1.098 13.262 15.779 12.433
	147 1 -1.098 10.437 9.204 4.167
	148 1 -1.098 9.18 12.52 4.689
	149 1 -1.098 5.009 7.693 9.74
	150 1 -1.098 13.049 2.0 12.001
	151 1 -1.098 10.344 15.779 9.661
	152 1 -1.098 10.783 14.197 2.95
	153 1 -1.098 14.254 11.844 15.717
	154 1 -1.098 13.295 1.994 3.635
	155 1 -1.098 10.902 3.866 15.789
	156 1 -1.098 10.465 2.056 3.66
	157 1 -1.098 15.771 3.992 14.578
	158 1 -1.098 12.821 9.361 4.559
	159 1 -1.098 14.708 5.982 5.363
	160 1 -1.098 12.128 6.662 12.002
	161 1 -1.098 7.409 2.033 9.865
	162 1 -1.098 3.728 4.675 3.436
	163 1 -1.098 5.769 15.768 1.998
	164 1 -1.098 14.875 13.745 7.678
	165 1 -1.098 7.241 9.634 11.802
	166 1 -1.098 10.784 13.939 13.855
	167 1 -1.098 13.174 15.769 10.205
	168 1 -1.098 10.262 3.29 8.038
	169 1 -1.098 5.931 12.317 6.454
	170 1 -1.098 13.756 13.864 14.246
	171 1 -1.098 3.54 15.305 13.119
	172 1 -1.098 3.085 14.325 10.758
	173 1 -1.098 8.857 13.045 15.154
	174 1 -1.098 11.987 3.73 1.998
	175 1 -1.098 10.575 1.98 13.017
	176 1 -1.098 2.97 3.416 5.808
	177 1 -1.098 7.093 9.733 1.999
	178 1 -1.098 7.51 4.919 14.26
	179 1 -1.098 11.991 11.544 15.794
	180 1 -1.098 14.515 15.768 8.461
	181 1 -1.098 4.89 4.669 11.759
	182 1 -1.098 8.501 13.447 13.011
	183 1 -1.098 6.255 6.719 11.381
	184 1 -1.098 13.134 8.582 12.953
	185 1 -1.098 6.752 15.793 15.861
	186 1 -1.098 9.739 4.141 13.068
	187 1 -1.098 8.44 9.747 9.783
	188 1 -1.098 3.102 9.658 13.453
	189 1 -1.098 4.069 13.147 7.735
